 Entering Link 1 = C:\G09W\l1.exe PID=      9468.
  
 Copyright (c) 1988,1990,1992,1993,1995,1998,2003,2009,2013,
            Gaussian, Inc.  All Rights Reserved.
  
 This is part of the Gaussian(R) 09 program.  It is based on
 the Gaussian(R) 03 system (copyright 2003, Gaussian, Inc.),
 the Gaussian(R) 98 system (copyright 1998, Gaussian, Inc.),
 the Gaussian(R) 94 system (copyright 1995, Gaussian, Inc.),
 the Gaussian 92(TM) system (copyright 1992, Gaussian, Inc.),
 the Gaussian 90(TM) system (copyright 1990, Gaussian, Inc.),
 the Gaussian 88(TM) system (copyright 1988, Gaussian, Inc.),
 the Gaussian 86(TM) system (copyright 1986, Carnegie Mellon
 University), and the Gaussian 82(TM) system (copyright 1983,
 Carnegie Mellon University). Gaussian is a federally registered
 trademark of Gaussian, Inc.
  
 This software contains proprietary and confidential information,
 including trade secrets, belonging to Gaussian, Inc.
  
 This software is provided under written license and may be
 used, copied, transmitted, or stored only in accord with that
 written license.
  
 The following legend is applicable only to US Government
 contracts under FAR:
  
                    RESTRICTED RIGHTS LEGEND
  
 Use, reproduction and disclosure by the US Government is
 subject to restrictions as set forth in subparagraphs (a)
 and (c) of the Commercial Computer Software - Restricted
 Rights clause in FAR 52.227-19.
  
 Gaussian, Inc.
 340 Quinnipiac St., Bldg. 40, Wallingford CT 06492
  
  
 ---------------------------------------------------------------
 Warning -- This program may not be used in any manner that
 competes with the business of Gaussian, Inc. or will provide
 assistance to any competitor of Gaussian, Inc.  The licensee
 of this program is prohibited from giving any competitor of
 Gaussian, Inc. access to this program.  By using this program,
 the user acknowledges that Gaussian, Inc. is engaged in the
 business of creating and licensing software in the field of
 computational chemistry and represents and warrants to the
 licensee that it is not a competitor of Gaussian, Inc. and that
 it will not use this program in any manner prohibited above.
 ---------------------------------------------------------------
  

 Cite this work as:
 Gaussian 09, Revision D.01,
 M. J. Frisch, G. W. Trucks, H. B. Schlegel, G. E. Scuseria, 
 M. A. Robb, J. R. Cheeseman, G. Scalmani, V. Barone, B. Mennucci, 
 G. A. Petersson, H. Nakatsuji, M. Caricato, X. Li, H. P. Hratchian, 
 A. F. Izmaylov, J. Bloino, G. Zheng, J. L. Sonnenberg, M. Hada, 
 M. Ehara, K. Toyota, R. Fukuda, J. Hasegawa, M. Ishida, T. Nakajima, 
 Y. Honda, O. Kitao, H. Nakai, T. Vreven, J. A. Montgomery, Jr., 
 J. E. Peralta, F. Ogliaro, M. Bearpark, J. J. Heyd, E. Brothers, 
 K. N. Kudin, V. N. Staroverov, T. Keith, R. Kobayashi, J. Normand, 
 K. Raghavachari, A. Rendell, J. C. Burant, S. S. Iyengar, J. Tomasi, 
 M. Cossi, N. Rega, J. M. Millam, M. Klene, J. E. Knox, J. B. Cross, 
 V. Bakken, C. Adamo, J. Jaramillo, R. Gomperts, R. E. Stratmann, 
 O. Yazyev, A. J. Austin, R. Cammi, C. Pomelli, J. W. Ochterski, 
 R. L. Martin, K. Morokuma, V. G. Zakrzewski, G. A. Voth, 
 P. Salvador, J. J. Dannenberg, S. Dapprich, A. D. Daniels, 
 O. Farkas, J. B. Foresman, J. V. Ortiz, J. Cioslowski, 
 and D. J. Fox, Gaussian, Inc., Wallingford CT, 2013.
 
 ******************************************
 Gaussian 09:  IA32W-G09RevD.01 24-Apr-2013
                06-Jul-2014 
 ******************************************
 %chk=FormHe_dst90.chk
 ---------------------------------------------
 # opt=modredundant b3lyp/6-311++g(d,p) nosymm
 ---------------------------------------------
 1/14=-1,18=120,19=15,26=3,38=1/1,3;
 2/9=110,12=2,15=1,17=6,18=5,40=1/2;
 3/5=4,6=6,7=1111,11=2,16=1,25=1,30=1,71=1,74=-5/1,2,3;
 4//1;
 5/5=2,38=5/2;
 6/7=2,8=2,9=2,10=2,28=1/1;
 7/30=1/1,2,3,16;
 1/14=-1,18=20,19=15,26=3/3(2);
 2/9=110,15=1/2;
 99//99;
 2/9=110,15=1/2;
 3/5=4,6=6,7=1111,11=2,16=1,25=1,30=1,71=1,74=-5/1,2,3;
 4/5=5,16=3,69=1/1;
 5/5=2,38=5/2;
 7/30=1/1,2,3,16;
 1/14=-1,18=20,19=15,26=3/3(-5);
 2/9=110,15=1/2;
 6/7=2,8=2,9=2,10=2,19=2,28=1/1;
 99/9=1/99;
 -----------------------------------------------------
 B3LYP/6-311++g(d,p) for formamide and He 90deg O=C.He
 -----------------------------------------------------
 Symbolic Z-matrix:
 Charge =  0 Multiplicity = 1
 N                    -0.59966   0.       -1.25107 
 C                    -0.24741   0.        0.06356 
 O                     0.89219   0.        0.47607 
 H                     0.12102   0.       -1.95726 
 H                    -1.56547   0.       -1.53621 
 H                    -1.12637   0.        0.73658 
 He                    0.04809   0.        2.80799 
 
 Add virtual bond connecting atoms He7        and O3         Dist= 4.69D+00.
 Add virtual bond connecting atoms He7        and H6         Dist= 4.50D+00.
 The following ModRedundant input section has been read:
 B       2       3 1.2119 B                                                    
 B       2       7 1.1070 B                                                    
 B       1       2 1.3610 B                                                    
 D       1       2       3       7 180.00 B                                    
 B       3       7 F                                                           
 A       2       3       7 R                                                   
 A       2       3       7 S  18 5.0000                                        
 
 Iteration  1 RMS(Cart)=  0.02343592 RMS(Int)=  0.62812179
 Iteration  2 RMS(Cart)=  0.01328934 RMS(Int)=  0.61519023
 Iteration  3 RMS(Cart)=  0.00758636 RMS(Int)=  0.60794068
 Iteration  4 RMS(Cart)=  0.00433612 RMS(Int)=  0.60384416
 Iteration  5 RMS(Cart)=  0.00247920 RMS(Int)=  0.60151791
 Iteration  6 RMS(Cart)=  0.00141766 RMS(Int)=  0.60019303
 Iteration  7 RMS(Cart)=  0.00081068 RMS(Int)=  0.59943716
 Iteration  8 RMS(Cart)=  0.00046359 RMS(Int)=  0.59900549
 Iteration  9 RMS(Cart)=  0.00026511 RMS(Int)=  0.59875882
 Iteration 10 RMS(Cart)=  0.00015161 RMS(Int)=  0.59861782
 Iteration 11 RMS(Cart)=  0.00008670 RMS(Int)=  0.59853721
 Iteration 12 RMS(Cart)=  0.00004958 RMS(Int)=  0.59849112
 Iteration 13 RMS(Cart)=  0.00002835 RMS(Int)=  0.59846476
 Iteration 14 RMS(Cart)=  0.00001621 RMS(Int)=  0.59844969
 Iteration 15 RMS(Cart)=  0.00000927 RMS(Int)=  0.59844107
 Iteration 16 RMS(Cart)=  0.00000530 RMS(Int)=  0.59843614
 Iteration 17 RMS(Cart)=  0.00000303 RMS(Int)=  0.59843333
 Iteration 18 RMS(Cart)=  0.00000173 RMS(Int)=  0.59843171
 Iteration 19 RMS(Cart)=  0.00000099 RMS(Int)=  0.59843079
 Iteration  1 RMS(Cart)=  0.01243016 RMS(Int)=  0.02166300
 Iteration  2 RMS(Cart)=  0.00544496 RMS(Int)=  0.02282779
 Iteration  3 RMS(Cart)=  0.00481580 RMS(Int)=  0.02529437
 Iteration  4 RMS(Cart)=  0.00426615 RMS(Int)=  0.02832010
 Iteration  5 RMS(Cart)=  0.00375088 RMS(Int)=  0.03145896
 Iteration  6 RMS(Cart)=  0.00328722 RMS(Int)=  0.03447963
 Iteration  7 RMS(Cart)=  0.00287450 RMS(Int)=  0.03727727
 Iteration  8 RMS(Cart)=  0.00250889 RMS(Int)=  0.03981277
 Iteration  9 RMS(Cart)=  0.00218618 RMS(Int)=  0.04208022
 Iteration 10 RMS(Cart)=  0.00190220 RMS(Int)=  0.04409019
 Iteration 11 RMS(Cart)=  0.00165299 RMS(Int)=  0.04586105
 Iteration 12 RMS(Cart)=  0.00143481 RMS(Int)=  0.04741430
 Iteration 13 RMS(Cart)=  0.00124420 RMS(Int)=  0.04877215
 Iteration 14 RMS(Cart)=  0.00107797 RMS(Int)=  0.04995610
 Iteration 15 RMS(Cart)=  0.00093324 RMS(Int)=  0.05098633
 Iteration 16 RMS(Cart)=  0.00080742 RMS(Int)=  0.05188132
 Iteration 17 RMS(Cart)=  0.00069815 RMS(Int)=  0.05265780
 Iteration 18 RMS(Cart)=  0.00060337 RMS(Int)=  0.05333072
 Iteration 19 RMS(Cart)=  0.00052124 RMS(Int)=  0.05391336
 Iteration 20 RMS(Cart)=  0.00045011 RMS(Int)=  0.05441746
 Iteration 21 RMS(Cart)=  0.00038857 RMS(Int)=  0.05485331
 Iteration 22 RMS(Cart)=  0.00033534 RMS(Int)=  0.05522997
 Iteration 23 RMS(Cart)=  0.00028934 RMS(Int)=  0.05555532
 Iteration 24 RMS(Cart)=  0.00024959 RMS(Int)=  0.05583625
 Iteration 25 RMS(Cart)=  0.00021526 RMS(Int)=  0.05607874
 Iteration 26 RMS(Cart)=  0.00018563 RMS(Int)=  0.05628799
 Iteration 27 RMS(Cart)=  0.00016005 RMS(Int)=  0.05646851
 Iteration 28 RMS(Cart)=  0.00013799 RMS(Int)=  0.05662422
 Iteration 29 RMS(Cart)=  0.00011895 RMS(Int)=  0.05675850
 Iteration 30 RMS(Cart)=  0.00010253 RMS(Int)=  0.05687429
 Iteration 31 RMS(Cart)=  0.00008837 RMS(Int)=  0.05697412
 Iteration 32 RMS(Cart)=  0.00007616 RMS(Int)=  0.05706018
 Iteration 33 RMS(Cart)=  0.00006563 RMS(Int)=  0.05713437
 Iteration 34 RMS(Cart)=  0.00005656 RMS(Int)=  0.05719830
 Iteration 35 RMS(Cart)=  0.00004874 RMS(Int)=  0.05725341
 Iteration 36 RMS(Cart)=  0.00004200 RMS(Int)=  0.05730090
 Iteration 37 RMS(Cart)=  0.00003619 RMS(Int)=  0.05734183
 Iteration 38 RMS(Cart)=  0.00003118 RMS(Int)=  0.05737709
 Iteration 39 RMS(Cart)=  0.00002686 RMS(Int)=  0.05740748
 Iteration 40 RMS(Cart)=  0.00002315 RMS(Int)=  0.05743366
 Iteration 41 RMS(Cart)=  0.00001994 RMS(Int)=  0.05745623
 Iteration 42 RMS(Cart)=  0.00001718 RMS(Int)=  0.05747567
 Iteration 43 RMS(Cart)=  0.00001480 RMS(Int)=  0.05749241
 Iteration 44 RMS(Cart)=  0.00001275 RMS(Int)=  0.05750685
 Iteration 45 RMS(Cart)=  0.00001099 RMS(Int)=  0.05751928
 Iteration 46 RMS(Cart)=  0.00000947 RMS(Int)=  0.05752999
 Iteration 47 RMS(Cart)=  0.00000816 RMS(Int)=  0.05753922
 Iteration 48 RMS(Cart)=  0.00000703 RMS(Int)=  0.05754717
 Iteration 49 RMS(Cart)=  0.00000605 RMS(Int)=  0.05755402
 Iteration 50 RMS(Cart)=  0.00000521 RMS(Int)=  0.05755992
 Iteration 51 RMS(Cart)=  0.00000449 RMS(Int)=  0.05756500
 Iteration 52 RMS(Cart)=  0.00000387 RMS(Int)=  0.05756938
 Iteration 53 RMS(Cart)=  0.00000333 RMS(Int)=  0.05757316
 Iteration 54 RMS(Cart)=  0.00000287 RMS(Int)=  0.05757641
 Iteration 55 RMS(Cart)=  0.00000247 RMS(Int)=  0.05757921
 Iteration 56 RMS(Cart)=  0.00000213 RMS(Int)=  0.05758162
 Iteration 57 RMS(Cart)=  0.00000184 RMS(Int)=  0.05758370
 Iteration 58 RMS(Cart)=  0.00000158 RMS(Int)=  0.05758549
 Iteration 59 RMS(Cart)=  0.00000136 RMS(Int)=  0.05758703
 Iteration 60 RMS(Cart)=  0.00000117 RMS(Int)=  0.05758836
 Iteration 61 RMS(Cart)=  0.00000101 RMS(Int)=  0.05758951
 Iteration 62 RMS(Cart)=  0.00000087 RMS(Int)=  0.05759049

 GradGradGradGradGradGradGradGradGradGradGradGradGradGradGradGradGradGrad
 Berny optimization.
 Initialization pass.
                           ----------------------------
                           !    Initial Parameters    !
                           ! (Angstroms and Degrees)  !
 --------------------------                            --------------------------
 ! Name  Definition              Value          Derivative Info.                !
 --------------------------------------------------------------------------------
 ! R1    R(1,2)                  1.361          estimate D2E/DX2                !
 ! R2    R(1,4)                  1.009          estimate D2E/DX2                !
 ! R3    R(1,5)                  1.007          estimate D2E/DX2                !
 ! R4    R(2,3)                  1.1402         estimate D2E/DX2                !
 ! R5    R(2,6)                  1.1101         estimate D2E/DX2                !
 ! R6    R(2,7)                  2.7295         estimate D2E/DX2                !
 ! R7    R(3,7)                  2.48           Frozen                          !
 ! R8    R(6,7)                  2.3678         estimate D2E/DX2                !
 ! A1    A(2,1,4)              119.4181         estimate D2E/DX2                !
 ! A2    A(2,1,5)              121.4487         estimate D2E/DX2                !
 ! A3    A(4,1,5)              119.1332         estimate D2E/DX2                !
 ! A4    A(1,2,3)              123.7345         estimate D2E/DX2                !
 ! A5    A(1,2,6)              111.4631         estimate D2E/DX2                !
 ! A6    A(3,2,6)              124.8024         estimate D2E/DX2                !
 ! A7    A(2,3,7)               89.9994         Scan                            !
 ! A8    A(3,7,6)               48.5141         estimate D2E/DX2                !
 ! A9    L(1,2,7,6,-1)         170.9556         estimate D2E/DX2                !
 ! A10   L(1,2,7,6,-2)         180.0            estimate D2E/DX2                !
 ! D1    D(4,1,2,3)              0.0            estimate D2E/DX2                !
 ! D2    D(4,1,2,6)           -180.0            estimate D2E/DX2                !
 ! D3    D(5,1,2,3)            180.0            estimate D2E/DX2                !
 ! D4    D(5,1,2,6)              0.0            estimate D2E/DX2                !
 ! D5    D(1,2,3,7)            180.0            estimate D2E/DX2                !
 --------------------------------------------------------------------------------
 Trust Radius=3.00D-01 FncErr=1.00D-07 GrdErr=1.00D-06
 Number of optimizations in scan=  19
 Number of steps in this run=     33 maximum allowed number of steps=    100.
 GradGradGradGradGradGradGradGradGradGradGradGradGradGradGradGradGradGrad

                          Input orientation:                          
 ---------------------------------------------------------------------
 Center     Atomic      Atomic             Coordinates (Angstroms)
 Number     Number       Type             X           Y           Z
 ---------------------------------------------------------------------
      1          7           0       -0.588325    0.000000   -1.238129
      2          6           0       -0.234994    0.000000    0.076216
      3          8           0        0.845073    0.000000    0.441538
      4          1           0        0.131783    0.000000   -1.944912
      5          1           0       -1.554375    0.000000   -1.522486
      6          1           0       -1.127203    0.000000    0.736657
      7          2           0        0.050436    0.000000    2.790781
 ---------------------------------------------------------------------
                    Distance matrix (angstroms):
                    1          2          3          4          5
     1  N    0.000000
     2  C    1.361009   0.000000
     3  O    2.208146   1.140178   0.000000
     4  H    1.009008   2.054138   2.490768   0.000000
     5  H    1.007031   2.072828   3.100764   1.738267   0.000000
     6  H    2.046990   1.110053   1.994233   2.962407   2.299174
     7  He   4.079231   2.729529   2.479998   4.736391   4.602140
                    6          7
     6  H    0.000000
     7  He   2.367754   0.000000
 Symmetry turned off by external request.
 Stoichiometry    CH3HeNO
 Framework group  CS[SG(CH3HeNO)]
 Deg. of freedom    11
 Full point group                 CS      NOp   2
 Rotational constants (GHZ):     35.7898802      7.3179672      6.0756726
 Standard basis: 6-311++G(d,p) (5D, 7F)
    94 basis functions,   144 primitive gaussians,    97 cartesian basis functions
    13 alpha electrons       13 beta electrons
       nuclear repulsion energy        81.4829815951 Hartrees.
 NAtoms=    7 NActive=    7 NUniq=    7 SFac= 1.00D+00 NAtFMM=   60 NAOKFM=F Big=F
 Integral buffers will be    262144 words long.
 Raffenetti 2 integral format.
 Two-electron integral symmetry is turned off.
 One-electron integrals computed using PRISM.
 NBasis=    94 RedAO= T EigKep=  7.06D-04  NBF=    94
 NBsUse=    94 1.00D-06 EigRej= -1.00D+00 NBFU=    94
 ExpMin= 3.60D-02 ExpMax= 8.59D+03 ExpMxC= 1.30D+03 IAcc=3 IRadAn=         5 AccDes= 0.00D+00
 Harris functional with IExCor=  402 and IRadAn=       5 diagonalized for initial guess.
 HarFok:  IExCor=  402 AccDes= 0.00D+00 IRadAn=         5 IDoV= 1 UseB2=F ITyADJ=14
 ICtDFT=  3500011 ScaDFX=  1.000000  1.000000  1.000000  1.000000
 FoFCou: FMM=F IPFlag=           0 FMFlag=      100000 FMFlg1=           0
         NFxFlg=           0 DoJE=T BraDBF=F KetDBF=T FulRan=T
         wScrn=  0.000000 ICntrl=     500 IOpCl=  0 I1Cent=   200000004 NGrid=           0
         NMat0=    1 NMatS0=      1 NMatT0=    0 NMatD0=    1 NMtDS0=    0 NMtDT0=    0
 Symmetry not used in FoFCou.
 Keep R1 ints in memory in canonical form, NReq=10932290.
 Requested convergence on RMS density matrix=1.00D-08 within 128 cycles.
 Requested convergence on MAX density matrix=1.00D-06.
 Requested convergence on             energy=1.00D-06.
 No special actions if energy rises.
 SCF Done:  E(RB3LYP) =  -172.857984401     A.U. after   11 cycles
            NFock= 11  Conv=0.35D-08     -V/T= 2.0019

 **********************************************************************

            Population analysis using the SCF density.

 **********************************************************************

 Alpha  occ. eigenvalues --  -19.10378 -14.34156 -10.27396  -1.09338  -0.91883
 Alpha  occ. eigenvalues --   -0.64623  -0.63129  -0.56709  -0.49513  -0.44134
 Alpha  occ. eigenvalues --   -0.43779  -0.29168  -0.27858
 Alpha virt. eigenvalues --   -0.01598   0.00818   0.01725   0.03348   0.05950
 Alpha virt. eigenvalues --    0.06835   0.08743   0.10972   0.13073   0.13355
 Alpha virt. eigenvalues --    0.13871   0.17063   0.18482   0.19723   0.20258
 Alpha virt. eigenvalues --    0.23841   0.25942   0.28793   0.29154   0.35016
 Alpha virt. eigenvalues --    0.36024   0.44461   0.50285   0.52019   0.52293
 Alpha virt. eigenvalues --    0.63075   0.65964   0.71779   0.75795   0.78550
 Alpha virt. eigenvalues --    0.89575   0.93352   1.01919   1.06903   1.10025
 Alpha virt. eigenvalues --    1.10760   1.15233   1.15568   1.17202   1.26521
 Alpha virt. eigenvalues --    1.29635   1.32380   1.39054   1.47313   1.50465
 Alpha virt. eigenvalues --    1.55998   1.67745   1.69962   1.77788   1.78725
 Alpha virt. eigenvalues --    1.79972   1.95966   2.07007   2.31502   2.33717
 Alpha virt. eigenvalues --    2.40298   2.42874   2.53654   2.59320   2.73397
 Alpha virt. eigenvalues --    2.75956   2.81336   2.91576   2.92930   3.02726
 Alpha virt. eigenvalues --    3.21563   3.43057   3.49601   3.58200   3.72921
 Alpha virt. eigenvalues --    3.82053   3.86990   4.74475   4.91412   5.02573
 Alpha virt. eigenvalues --    5.19113   5.78575   6.20441  24.00007  35.59420
 Alpha virt. eigenvalues --   50.04528
          Condensed to atoms (all electrons):
               1          2          3          4          5          6
     1  N    6.908979   0.234871  -0.194180   0.340690   0.295266  -0.241229
     2  C    0.234871   4.799210   0.427783  -0.013978   0.003360   0.423029
     3  O   -0.194180   0.427783   8.135903   0.013043   0.014771  -0.030761
     4  H    0.340690  -0.013978   0.013043   0.402713  -0.013762   0.009657
     5  H    0.295266   0.003360   0.014771  -0.013762   0.431190   0.024569
     6  H   -0.241229   0.423029  -0.030761   0.009657   0.024569   0.754717
     7  He   0.000358   0.006967  -0.024629   0.000130   0.000475   0.006184
               7
     1  N    0.000358
     2  C    0.006967
     3  O   -0.024629
     4  H    0.000130
     5  H    0.000475
     6  H    0.006184
     7  He   2.002056
 Mulliken charges:
               1
     1  N   -0.344756
     2  C    0.118758
     3  O   -0.341931
     4  H    0.261505
     5  H    0.244131
     6  H    0.053833
     7  He   0.008460
 Sum of Mulliken charges =   0.00000
 Mulliken charges with hydrogens summed into heavy atoms:
               1
     1  N    0.160880
     2  C    0.172591
     3  O   -0.341931
     7  He   0.008460
 Electronic spatial extent (au):  <R**2>=            207.5197
 Charge=              0.0000 electrons
 Dipole moment (field-independent basis, Debye):
    X=             -2.7253    Y=              0.0000    Z=             -2.1482  Tot=              3.4701
 Quadrupole moment (field-independent basis, Debye-Ang):
   XX=            -18.6790   YY=            -20.1563   ZZ=            -15.8705
   XY=              0.0000   XZ=             -0.4235   YZ=              0.0000
 Traceless Quadrupole moment (field-independent basis, Debye-Ang):
   XX=             -0.4437   YY=             -1.9211   ZZ=              2.3648
   XY=              0.0000   XZ=             -0.4235   YZ=              0.0000
 Octapole moment (field-independent basis, Debye-Ang**2):
  XXX=             -2.7025  YYY=              0.0000  ZZZ=             -2.5188  XYY=              2.3489
  XXY=              0.0000  XXZ=             -2.1040  XZZ=             -0.3475  YZZ=              0.0000
  YYZ=              4.1991  XYZ=              0.0000
 Hexadecapole moment (field-independent basis, Debye-Ang**3):
 XXXX=            -64.7667 YYYY=            -19.9510 ZZZZ=           -134.3123 XXXY=              0.0000
 XXXZ=            -13.4582 YYYX=              0.0000 YYYZ=              0.0000 ZZZX=            -19.0510
 ZZZY=              0.0000 XXYY=            -15.9845 XXZZ=            -31.1000 YYZZ=            -31.2159
 XXYZ=              0.0000 YYXZ=             -7.9692 ZZXY=              0.0000
 N-N= 8.148298159507D+01 E-N=-5.686899666505D+02  KE= 1.725385267234D+02
 Calling FoFJK, ICntrl=      2127 FMM=F ISym2X=0 I1Cent= 0 IOpClX= 0 NMat=1 NMatS=1 NMatT=0.
 -------------------------------------------------------------------
 Center     Atomic                   Forces (Hartrees/Bohr)
 Number     Number              X              Y              Z
 -------------------------------------------------------------------
      1        7          -0.010477607    0.000000000   -0.011318474
      2        6          -0.117857225    0.000000000   -0.042829851
      3        8           0.130726691    0.000000000    0.049700616
      4        1          -0.000153514    0.000000000   -0.000043666
      5        1           0.000412535    0.000000000   -0.000647664
      6        1          -0.001824374    0.000000000    0.001919573
      7        2          -0.000826507    0.000000000    0.003219466
 -------------------------------------------------------------------
 Cartesian Forces:  Max     0.130726691 RMS     0.041139082

 GradGradGradGradGradGradGradGradGradGradGradGradGradGradGradGradGradGrad
 Berny optimization.
 FormGI is forming the generalized inverse of G from B-inverse, IUseBI=4.
 Internal  Forces:  Max     0.130123983 RMS     0.028410580
 Search for a local minimum.
 Step number   1 out of a maximum of   33 on scan point     1 out of    19
 All quantities printed in internal units (Hartrees-Bohrs-Radians)
 Mixed Optimization -- RFO/linear search
 Second derivative matrix not updated -- first step.
 ITU=  0
     Eigenvalues ---    0.02036   0.02208   0.02208   0.02730   0.05423
     Eigenvalues ---    0.13771   0.16000   0.16000   0.31732   0.46139
     Eigenvalues ---    0.46473   0.52744   1.079231000.000001000.00000
     Eigenvalues --- 1000.000001000.000001000.000001000.000001000.00000
     Eigenvalues --- 1000.000001000.000001000.00000
 RFO step:  Lambda=-1.47775115D-02 EMin= 2.03604051D-02
 Linear search not attempted -- first point.
 Iteration  1 RMS(Cart)=  0.03357608 RMS(Int)=  0.00072760
 Iteration  2 RMS(Cart)=  0.00047874 RMS(Int)=  0.00009219
 Iteration  3 RMS(Cart)=  0.00000034 RMS(Int)=  0.00009219
 Iteration  1 RMS(Cart)=  0.00002114 RMS(Int)=  0.00004409
 Iteration  2 RMS(Cart)=  0.00001175 RMS(Int)=  0.00004658
 Iteration  3 RMS(Cart)=  0.00001033 RMS(Int)=  0.00005202
 Iteration  4 RMS(Cart)=  0.00000899 RMS(Int)=  0.00005854
 Iteration  5 RMS(Cart)=  0.00000778 RMS(Int)=  0.00006516
 Iteration  6 RMS(Cart)=  0.00000674 RMS(Int)=  0.00007141
 Iteration  7 RMS(Cart)=  0.00000583 RMS(Int)=  0.00007712
 Iteration  8 RMS(Cart)=  0.00000505 RMS(Int)=  0.00008224
 Iteration  9 RMS(Cart)=  0.00000437 RMS(Int)=  0.00008678
 Iteration 10 RMS(Cart)=  0.00000378 RMS(Int)=  0.00009077
 Iteration 11 RMS(Cart)=  0.00000327 RMS(Int)=  0.00009428
 Iteration 12 RMS(Cart)=  0.00000283 RMS(Int)=  0.00009734
 Iteration 13 RMS(Cart)=  0.00000245 RMS(Int)=  0.00010001
 Iteration 14 RMS(Cart)=  0.00000212 RMS(Int)=  0.00010233
 Iteration 15 RMS(Cart)=  0.00000183 RMS(Int)=  0.00010435
 Iteration 16 RMS(Cart)=  0.00000159 RMS(Int)=  0.00010611
 Iteration 17 RMS(Cart)=  0.00000137 RMS(Int)=  0.00010763
 Iteration 18 RMS(Cart)=  0.00000119 RMS(Int)=  0.00010896
 Iteration 19 RMS(Cart)=  0.00000103 RMS(Int)=  0.00011010
 Iteration 20 RMS(Cart)=  0.00000089 RMS(Int)=  0.00011110
 Variable       Old X    -DE/DX   Delta X   Delta X   Delta X     New X
                                 (Linear)    (Quad)   (Total)
    R1        2.57193   0.01425   0.00000   0.02628   0.02628   2.59822
    R2        1.90675  -0.00008   0.00000  -0.00017  -0.00017   1.90658
    R3        1.90301  -0.00021   0.00000  -0.00044  -0.00044   1.90257
    R4        2.15462   0.13012   0.00000   0.09704   0.09679   2.25142
    R5        2.09770  -0.00258   0.00000   0.00617   0.00623   2.10393
    R6        5.15806   0.01075   0.00000   0.04054   0.04115   5.19921
    R7        4.68652  -0.00475   0.00000   0.00000   0.00000   4.68651
    R8        4.47441   0.00324   0.00000   0.01172   0.01178   4.48618
    A1        2.08424  -0.00029   0.00000  -0.00167  -0.00167   2.08256
    A2        2.11968   0.00085   0.00000   0.00486   0.00486   2.12454
    A3        2.07927  -0.00056   0.00000  -0.00318  -0.00318   2.07608
    A4        2.15957   0.01100   0.00000   0.04722   0.04717   2.20674
    A5        1.94540  -0.00096   0.00000  -0.01830  -0.01821   1.92718
    A6        2.17821  -0.01004   0.00000  -0.02892  -0.02896   2.14926
    A7        1.57079  -0.02007   0.00000   0.00000  -0.00001   1.57077
    A8        0.84673   0.02508   0.00000   0.01416   0.01390   0.86063
    A9        2.98374  -0.00426   0.00000  -0.03013  -0.03026   2.95347
   A10        3.14159   0.00000   0.00000   0.00000   0.00000   3.14159
    D1        0.00000   0.00000   0.00000   0.00000   0.00000   0.00000
    D2       -3.14159   0.00000   0.00000   0.00000   0.00000  -3.14159
    D3        3.14159   0.00000   0.00000   0.00000   0.00000   3.14159
    D4        0.00000   0.00000   0.00000   0.00000   0.00000   0.00000
    D5        3.14159   0.00000   0.00000   0.00000   0.00000   3.14159
         Item               Value     Threshold  Converged?
 Maximum Force            0.106666     0.000450     NO 
 RMS     Force            0.027187     0.000300     NO 
 Maximum Displacement     0.094119     0.001800     NO 
 RMS     Displacement     0.033643     0.001200     NO 
 Predicted change in Energy=-7.513688D-03
 GradGradGradGradGradGradGradGradGradGradGradGradGradGradGradGradGradGrad

                          Input orientation:                          
 ---------------------------------------------------------------------
 Center     Atomic      Atomic             Coordinates (Angstroms)
 Number     Number       Type             X           Y           Z
 ---------------------------------------------------------------------
      1          7           0       -0.601000    0.000000   -1.253292
      2          6           0       -0.221647    0.000000    0.068256
      3          8           0        0.894878    0.000000    0.483950
      4          1           0        0.108189    0.000000   -1.970907
      5          1           0       -1.570183    0.000000   -1.525913
      6          1           0       -1.117364    0.000000    0.729499
      7          2           0        0.029522    0.000000    2.808071
 ---------------------------------------------------------------------
                    Distance matrix (angstroms):
                    1          2          3          4          5
     1  N    0.000000
     2  C    1.374917   0.000000
     3  O    2.292523   1.191398   0.000000
     4  H    1.008921   2.065666   2.577830   0.000000
     5  H    1.006796   2.088043   3.180578   1.736362   0.000000
     6  H    2.048924   1.113352   2.027169   2.965497   2.300419
     7  He   4.110015   2.751304   2.479996   4.779626   4.619791
                    6          7
     6  H    0.000000
     7  He   2.373987   0.000000
 Symmetry turned off by external request.
 Stoichiometry    CH3HeNO
 Framework group  C1[X(CH3HeNO)]
 Deg. of freedom    15
 Full point group                 C1      NOp   1
 Rotational constants (GHZ):     33.9890054      7.0697445      5.8524331
 Standard basis: 6-311++G(d,p) (5D, 7F)
    94 basis functions,   144 primitive gaussians,    97 cartesian basis functions
    13 alpha electrons       13 beta electrons
       nuclear repulsion energy        79.6750807782 Hartrees.
 NAtoms=    7 NActive=    7 NUniq=    7 SFac= 1.00D+00 NAtFMM=   60 NAOKFM=F Big=F
 Integral buffers will be    262144 words long.
 Raffenetti 2 integral format.
 Two-electron integral symmetry is turned off.
 One-electron integrals computed using PRISM.
 NBasis=    94 RedAO= T EigKep=  7.11D-04  NBF=    94
 NBsUse=    94 1.00D-06 EigRej= -1.00D+00 NBFU=    94
 Initial guess from the checkpoint file:  "FormHe_dst90.chk"
 B after Tr=     0.022845    0.000000    0.013527
         Rot=    0.999999    0.000000    0.001119    0.000000 Ang=   0.13 deg.
 ExpMin= 3.60D-02 ExpMax= 8.59D+03 ExpMxC= 1.30D+03 IAcc=3 IRadAn=         5 AccDes= 0.00D+00
 Harris functional with IExCor=  402 and IRadAn=       5 diagonalized for initial guess.
 HarFok:  IExCor=  402 AccDes= 0.00D+00 IRadAn=         5 IDoV= 1 UseB2=F ITyADJ=14
 ICtDFT=  3500011 ScaDFX=  1.000000  1.000000  1.000000  1.000000
 FoFCou: FMM=F IPFlag=           0 FMFlag=      100000 FMFlg1=           0
         NFxFlg=           0 DoJE=T BraDBF=F KetDBF=T FulRan=T
         wScrn=  0.000000 ICntrl=     500 IOpCl=  0 I1Cent=   200000004 NGrid=           0
         NMat0=    1 NMatS0=      1 NMatT0=    0 NMatD0=    1 NMtDS0=    0 NMtDT0=    0
 Symmetry not used in FoFCou.
 Keep R1 ints in memory in canonical form, NReq=10932290.
 Requested convergence on RMS density matrix=1.00D-08 within 128 cycles.
 Requested convergence on MAX density matrix=1.00D-06.
 Requested convergence on             energy=1.00D-06.
 No special actions if energy rises.
 SCF Done:  E(RB3LYP) =  -172.866049562     A.U. after   10 cycles
            NFock= 10  Conv=0.16D-08     -V/T= 2.0036
 Calling FoFJK, ICntrl=      2127 FMM=F ISym2X=0 I1Cent= 0 IOpClX= 0 NMat=1 NMatS=1 NMatT=0.
 -------------------------------------------------------------------
 Center     Atomic                   Forces (Hartrees/Bohr)
 Number     Number              X              Y              Z
 -------------------------------------------------------------------
      1        7           0.006879226    0.000000000    0.005987685
      2        6          -0.036520715    0.000000001   -0.013991516
      3        8           0.027549002    0.000000000    0.004150706
      4        1           0.000010113    0.000000000   -0.000672278
      5        1           0.000207936    0.000000000    0.001272212
      6        1           0.002840263    0.000000000   -0.000017537
      7        2          -0.000965824    0.000000000    0.003270729
 -------------------------------------------------------------------
 Cartesian Forces:  Max     0.036520715 RMS     0.010714229

 GradGradGradGradGradGradGradGradGradGradGradGradGradGradGradGradGradGrad
 Berny optimization.
 Using GEDIIS/GDIIS optimizer.
 FormGI is forming the generalized inverse of G from B-inverse, IUseBI=4.
 Internal  Forces:  Max     0.025211296 RMS     0.005934949
 Search for a local minimum.
 Step number   2 out of a maximum of   33 on scan point     1 out of    19
 All quantities printed in internal units (Hartrees-Bohrs-Radians)
 Mixed Optimization -- RFO/linear search
 Update second derivatives using D2CorX and points    1    2
 DE= -8.07D-03 DEPred=-7.51D-03 R= 1.07D+00
 TightC=F SS=  1.41D+00  RLast= 1.28D-01 DXNew= 5.0454D-01 3.8502D-01
 Trust test= 1.07D+00 RLast= 1.28D-01 DXMaxT set to 3.85D-01
 ITU=  1  0
 Use linear search instead of GDIIS.
     Eigenvalues ---    0.01986   0.02208   0.02208   0.02786   0.05421
     Eigenvalues ---    0.14544   0.15998   0.16048   0.31783   0.46138
     Eigenvalues ---    0.46469   0.54185   0.858961000.000001000.00000
     Eigenvalues --- 1000.000001000.000001000.000001000.000001000.00000
     Eigenvalues --- 1000.000001000.000001000.00000
 RFO step:  Lambda=-7.71802545D-04 EMin= 1.98628095D-02
 Quartic linear search produced a step of  0.19797.
 Iteration  1 RMS(Cart)=  0.00966501 RMS(Int)=  0.00009356
 Iteration  2 RMS(Cart)=  0.00011984 RMS(Int)=  0.00002560
 Iteration  3 RMS(Cart)=  0.00000000 RMS(Int)=  0.00002560
 Iteration  1 RMS(Cart)=  0.00000640 RMS(Int)=  0.00001526
 Iteration  2 RMS(Cart)=  0.00000411 RMS(Int)=  0.00001612
 Iteration  3 RMS(Cart)=  0.00000361 RMS(Int)=  0.00001802
 Iteration  4 RMS(Cart)=  0.00000314 RMS(Int)=  0.00002031
 Iteration  5 RMS(Cart)=  0.00000273 RMS(Int)=  0.00002264
 Iteration  6 RMS(Cart)=  0.00000236 RMS(Int)=  0.00002484
 Iteration  7 RMS(Cart)=  0.00000205 RMS(Int)=  0.00002685
 Iteration  8 RMS(Cart)=  0.00000178 RMS(Int)=  0.00002865
 Iteration  9 RMS(Cart)=  0.00000154 RMS(Int)=  0.00003025
 Iteration 10 RMS(Cart)=  0.00000133 RMS(Int)=  0.00003166
 Iteration 11 RMS(Cart)=  0.00000116 RMS(Int)=  0.00003290
 Iteration 12 RMS(Cart)=  0.00000100 RMS(Int)=  0.00003399
 Iteration 13 RMS(Cart)=  0.00000087 RMS(Int)=  0.00003493
 Variable       Old X    -DE/DX   Delta X   Delta X   Delta X     New X
                                 (Linear)    (Quad)   (Total)
    R1        2.59822  -0.00829   0.00520  -0.02120  -0.01600   2.58222
    R2        1.90658   0.00048  -0.00003   0.00127   0.00124   1.90782
    R3        1.90257  -0.00054  -0.00009  -0.00136  -0.00145   1.90112
    R4        2.25142   0.02521   0.01916   0.01166   0.03074   2.28216
    R5        2.10393  -0.00318   0.00123  -0.00873  -0.00748   2.09645
    R6        5.19921   0.00204   0.00815   0.00506   0.01339   5.21260
    R7        4.68651   0.00227   0.00000   0.00000   0.00000   4.68651
    R8        4.48618   0.00038   0.00233   0.01227   0.01462   4.50081
    A1        2.08256   0.00134  -0.00033   0.00993   0.00960   2.09216
    A2        2.12454  -0.00178   0.00096  -0.01319  -0.01222   2.11231
    A3        2.07608   0.00045  -0.00063   0.00326   0.00263   2.07871
    A4        2.20674  -0.00311   0.00934  -0.02808  -0.01875   2.18799
    A5        1.92718   0.00384  -0.00361   0.02699   0.02341   1.95059
    A6        2.14926  -0.00073  -0.00573   0.00109  -0.00466   2.14460
    A7        1.57077  -0.00538   0.00000   0.00000   0.00000   1.57077
    A8        0.86063   0.00425   0.00275  -0.00017   0.00251   0.86315
    A9        2.95347   0.00292  -0.00599   0.03010   0.02407   2.97754
   A10        3.14159   0.00000   0.00000   0.00000   0.00000   3.14159
    D1        0.00000   0.00000   0.00000   0.00000   0.00000   0.00000
    D2       -3.14159   0.00000   0.00000   0.00000   0.00000  -3.14159
    D3        3.14159   0.00000   0.00000   0.00000   0.00000   3.14159
    D4        0.00000   0.00000   0.00000   0.00000   0.00000   0.00000
    D5        3.14159   0.00000   0.00000   0.00000   0.00000   3.14159
         Item               Value     Threshold  Converged?
 Maximum Force            0.019970     0.000450     NO 
 RMS     Force            0.005569     0.000300     NO 
 Maximum Displacement     0.032966     0.001800     NO 
 RMS     Displacement     0.009671     0.001200     NO 
 Predicted change in Energy=-6.013110D-04
 GradGradGradGradGradGradGradGradGradGradGradGradGradGradGradGradGradGrad

                          Input orientation:                          
 ---------------------------------------------------------------------
 Center     Atomic      Atomic             Coordinates (Angstroms)
 Number     Number       Type             X           Y           Z
 ---------------------------------------------------------------------
      1          7           0       -0.597620    0.000000   -1.253289
      2          6           0       -0.239092    0.000000    0.065288
      3          8           0        0.894646    0.000000    0.481334
      4          1           0        0.115220    0.000000   -1.968203
      5          1           0       -1.565566    0.000000   -1.527469
      6          1           0       -1.125417    0.000000    0.732506
      7          2           0        0.040224    0.000000    2.809497
 ---------------------------------------------------------------------
                    Distance matrix (angstroms):
                    1          2          3          4          5
     1  N    0.000000
     2  C    1.366451   0.000000
     3  O    2.288182   1.207666   0.000000
     4  H    1.009576   2.064127   2.570552   0.000000
     5  H    1.006028   2.072778   3.176150   1.737609   0.000000
     6  H    2.054739   1.109393   2.035619   2.972038   2.302437
     7  He   4.112551   2.758387   2.479996   4.778288   4.624698
                    6          7
     6  H    0.000000
     7  He   2.381725   0.000000
 Symmetry turned off by external request.
 Stoichiometry    CH3HeNO
 Framework group  C1[X(CH3HeNO)]
 Deg. of freedom    15
 Full point group                 C1      NOp   1
 Rotational constants (GHZ):     33.8870355      7.0713652      5.8505117
 Standard basis: 6-311++G(d,p) (5D, 7F)
    94 basis functions,   144 primitive gaussians,    97 cartesian basis functions
    13 alpha electrons       13 beta electrons
       nuclear repulsion energy        79.5187708885 Hartrees.
 NAtoms=    7 NActive=    7 NUniq=    7 SFac= 1.00D+00 NAtFMM=   60 NAOKFM=F Big=F
 Integral buffers will be    262144 words long.
 Raffenetti 2 integral format.
 Two-electron integral symmetry is turned off.
 One-electron integrals computed using PRISM.
 NBasis=    94 RedAO= T EigKep=  7.06D-04  NBF=    94
 NBsUse=    94 1.00D-06 EigRej= -1.00D+00 NBFU=    94
 Initial guess from the checkpoint file:  "FormHe_dst90.chk"
 B after Tr=    -0.004185    0.000000   -0.002316
         Rot=    1.000000    0.000000   -0.000087    0.000000 Ang=  -0.01 deg.
 ExpMin= 3.60D-02 ExpMax= 8.59D+03 ExpMxC= 1.30D+03 IAcc=3 IRadAn=         5 AccDes= 0.00D+00
 Harris functional with IExCor=  402 and IRadAn=       5 diagonalized for initial guess.
 HarFok:  IExCor=  402 AccDes= 0.00D+00 IRadAn=         5 IDoV= 1 UseB2=F ITyADJ=14
 ICtDFT=  3500011 ScaDFX=  1.000000  1.000000  1.000000  1.000000
 FoFCou: FMM=F IPFlag=           0 FMFlag=      100000 FMFlg1=           0
         NFxFlg=           0 DoJE=T BraDBF=F KetDBF=T FulRan=T
         wScrn=  0.000000 ICntrl=     500 IOpCl=  0 I1Cent=   200000004 NGrid=           0
         NMat0=    1 NMatS0=      1 NMatT0=    0 NMatD0=    1 NMtDS0=    0 NMtDT0=    0
 Symmetry not used in FoFCou.
 Keep R1 ints in memory in canonical form, NReq=10932290.
 Requested convergence on RMS density matrix=1.00D-08 within 128 cycles.
 Requested convergence on MAX density matrix=1.00D-06.
 Requested convergence on             energy=1.00D-06.
 No special actions if energy rises.
 SCF Done:  E(RB3LYP) =  -172.866768332     A.U. after    9 cycles
            NFock=  9  Conv=0.36D-08     -V/T= 2.0038
 Calling FoFJK, ICntrl=      2127 FMM=F ISym2X=0 I1Cent= 0 IOpClX= 0 NMat=1 NMatS=1 NMatT=0.
 -------------------------------------------------------------------
 Center     Atomic                   Forces (Hartrees/Bohr)
 Number     Number              X              Y              Z
 -------------------------------------------------------------------
      1        7           0.002004038    0.000000001    0.003430196
      2        6          -0.006278614   -0.000000005   -0.004736392
      3        8           0.004241162    0.000000002   -0.002005585
      4        1          -0.000037008    0.000000000    0.000602541
      5        1          -0.000489091    0.000000000   -0.000271096
      6        1           0.001555274    0.000000002   -0.000340680
      7        2          -0.000995762    0.000000000    0.003321016
 -------------------------------------------------------------------
 Cartesian Forces:  Max     0.006278614 RMS     0.002338899

 GradGradGradGradGradGradGradGradGradGradGradGradGradGradGradGradGradGrad
 Berny optimization.
 Using GEDIIS/GDIIS optimizer.
 FormGI is forming the generalized inverse of G from B-inverse, IUseBI=4.
 Internal  Forces:  Max     0.004017442 RMS     0.001309823
 Search for a local minimum.
 Step number   3 out of a maximum of   33 on scan point     1 out of    19
 All quantities printed in internal units (Hartrees-Bohrs-Radians)
 Mixed Optimization -- RFO/linear search
 Update second derivatives using D2CorX and points    1    2    3
 DE= -7.19D-04 DEPred=-6.01D-04 R= 1.20D+00
 TightC=F SS=  1.41D+00  RLast= 5.84D-02 DXNew= 6.4753D-01 1.7515D-01
 Trust test= 1.20D+00 RLast= 5.84D-02 DXMaxT set to 3.85D-01
 ITU=  1  1  0
 Use linear search instead of GDIIS.
     Eigenvalues ---    0.02026   0.02208   0.02208   0.02750   0.05485
     Eigenvalues ---    0.14711   0.15994   0.16799   0.30966   0.45553
     Eigenvalues ---    0.46266   0.46868   0.781701000.000001000.00000
     Eigenvalues --- 1000.000001000.000001000.000001000.000001000.00000
     Eigenvalues --- 1000.000001000.000001000.00000
 RFO step:  Lambda=-3.83579195D-05 EMin= 2.02625300D-02
 Quartic linear search produced a step of  0.22507.
 Iteration  1 RMS(Cart)=  0.00454414 RMS(Int)=  0.00001509
 Iteration  2 RMS(Cart)=  0.00001692 RMS(Int)=  0.00000230
 Iteration  3 RMS(Cart)=  0.00000000 RMS(Int)=  0.00000230
 Iteration  1 RMS(Cart)=  0.00000115 RMS(Int)=  0.00000366
 Iteration  2 RMS(Cart)=  0.00000102 RMS(Int)=  0.00000387
 Iteration  3 RMS(Cart)=  0.00000088 RMS(Int)=  0.00000434
 Variable       Old X    -DE/DX   Delta X   Delta X   Delta X     New X
                                 (Linear)    (Quad)   (Total)
    R1        2.58222  -0.00402  -0.00360  -0.00570  -0.00931   2.57291
    R2        1.90782  -0.00045   0.00028  -0.00141  -0.00113   1.90669
    R3        1.90112   0.00055  -0.00033   0.00166   0.00134   1.90245
    R4        2.28216   0.00303   0.00692  -0.00036   0.00655   2.28871
    R5        2.09645  -0.00148  -0.00168  -0.00379  -0.00548   2.09097
    R6        5.21260   0.00122   0.00301  -0.00016   0.00287   5.21547
    R7        4.68651   0.00250   0.00000   0.00000   0.00000   4.68651
    R8        4.50081  -0.00016   0.00329  -0.00427  -0.00097   4.49983
    A1        2.09216  -0.00059   0.00216  -0.00607  -0.00391   2.08825
    A2        2.11231   0.00041  -0.00275   0.00534   0.00259   2.11490
    A3        2.07871   0.00017   0.00059   0.00073   0.00132   2.08003
    A4        2.18799  -0.00088  -0.00422  -0.00036  -0.00458   2.18341
    A5        1.95059   0.00098   0.00527   0.00253   0.00781   1.95840
    A6        2.14460  -0.00009  -0.00105  -0.00217  -0.00323   2.14137
    A7        1.57077  -0.00115   0.00000   0.00000   0.00000   1.57077
    A8        0.86315   0.00006   0.00057  -0.00102  -0.00046   0.86269
    A9        2.97754   0.00027   0.00542   0.00030   0.00571   2.98325
   A10        3.14159   0.00000   0.00000   0.00000   0.00000   3.14159
    D1        0.00000   0.00000   0.00000   0.00000   0.00000   0.00000
    D2       -3.14159   0.00000   0.00000   0.00000   0.00000   3.14159
    D3        3.14159   0.00000   0.00000   0.00000   0.00000  -3.14159
    D4        0.00000   0.00000   0.00000   0.00000   0.00000   0.00000
    D5        3.14159   0.00000   0.00000   0.00000   0.00000   3.14159
         Item               Value     Threshold  Converged?
 Maximum Force            0.004017     0.000450     NO 
 RMS     Force            0.001200     0.000300     NO 
 Maximum Displacement     0.013140     0.001800     NO 
 RMS     Displacement     0.004547     0.001200     NO 
 Predicted change in Energy=-4.238518D-05
 GradGradGradGradGradGradGradGradGradGradGradGradGradGradGradGradGradGrad

                          Input orientation:                          
 ---------------------------------------------------------------------
 Center     Atomic      Atomic             Coordinates (Angstroms)
 Number     Number       Type             X           Y           Z
 ---------------------------------------------------------------------
      1          7           0       -0.598250    0.000000   -1.251436
      2          6           0       -0.244477    0.000000    0.063326
      3          8           0        0.893325    0.000000    0.478353
      4          1           0        0.118826    0.000000   -1.961249
      5          1           0       -1.565429    0.000000   -1.530865
      6          1           0       -1.125035    0.000000    0.733363
      7          2           0        0.043434    0.000000    2.808173
 ---------------------------------------------------------------------
                    Distance matrix (angstroms):
                    1          2          3          4          5
     1  N    0.000000
     2  C    1.361527   0.000000
     3  O    2.284068   1.211132   0.000000
     4  H    1.008976   2.056913   2.559591   0.000000
     5  H    1.006735   2.070352   3.175284   1.738374   0.000000
     6  H    2.053517   1.106495   2.034406   2.967848   2.306659
     7  He   4.110011   2.759906   2.479996   4.770018   4.627710
                    6          7
     6  H    0.000000
     7  He   2.381209   0.000000
 Symmetry turned off by external request.
 Stoichiometry    CH3HeNO
 Framework group  C1[X(CH3HeNO)]
 Deg. of freedom    15
 Full point group                 C1      NOp   1
 Rotational constants (GHZ):     33.8876984      7.0866045      5.8609591
 Standard basis: 6-311++G(d,p) (5D, 7F)
    94 basis functions,   144 primitive gaussians,    97 cartesian basis functions
    13 alpha electrons       13 beta electrons
       nuclear repulsion energy        79.5646050220 Hartrees.
 NAtoms=    7 NActive=    7 NUniq=    7 SFac= 1.00D+00 NAtFMM=   60 NAOKFM=F Big=F
 Integral buffers will be    262144 words long.
 Raffenetti 2 integral format.
 Two-electron integral symmetry is turned off.
 One-electron integrals computed using PRISM.
 NBasis=    94 RedAO= T EigKep=  7.02D-04  NBF=    94
 NBsUse=    94 1.00D-06 EigRej= -1.00D+00 NBFU=    94
 Initial guess from the checkpoint file:  "FormHe_dst90.chk"
 B after Tr=    -0.002597    0.000000   -0.001560
         Rot=    1.000000    0.000000   -0.000301    0.000000 Ang=  -0.03 deg.
 Keep R1 ints in memory in canonical form, NReq=10932290.
 Requested convergence on RMS density matrix=1.00D-08 within 128 cycles.
 Requested convergence on MAX density matrix=1.00D-06.
 Requested convergence on             energy=1.00D-06.
 No special actions if energy rises.
 SCF Done:  E(RB3LYP) =  -172.866815727     A.U. after    9 cycles
            NFock=  9  Conv=0.16D-08     -V/T= 2.0038
 Calling FoFJK, ICntrl=      2127 FMM=F ISym2X=0 I1Cent= 0 IOpClX= 0 NMat=1 NMatS=1 NMatT=0.
 -------------------------------------------------------------------
 Center     Atomic                   Forces (Hartrees/Bohr)
 Number     Number              X              Y              Z
 -------------------------------------------------------------------
      1        7          -0.000257162   -0.000000004    0.000670372
      2        6           0.000401976    0.000000019   -0.001078391
      3        8           0.000377123   -0.000000007   -0.003007629
      4        1           0.000195408    0.000000000    0.000022179
      5        1           0.000102489   -0.000000001   -0.000172401
      6        1           0.000179167   -0.000000006    0.000233686
      7        2          -0.000999002    0.000000000    0.003332183
 -------------------------------------------------------------------
 Cartesian Forces:  Max     0.003332183 RMS     0.001053230

 GradGradGradGradGradGradGradGradGradGradGradGradGradGradGradGradGradGrad
 Berny optimization.
 Using GEDIIS/GDIIS optimizer.
 FormGI is forming the generalized inverse of G from B-inverse, IUseBI=4.
 Internal  Forces:  Max     0.002542317 RMS     0.000636518
 Search for a local minimum.
 Step number   4 out of a maximum of   33 on scan point     1 out of    19
 All quantities printed in internal units (Hartrees-Bohrs-Radians)
 Mixed Optimization -- En-DIIS/RFO-DIIS
 Update second derivatives using D2CorX and points    1    2    3    4
 DE= -4.74D-05 DEPred=-4.24D-05 R= 1.12D+00
 TightC=F SS=  1.41D+00  RLast= 1.79D-02 DXNew= 6.4753D-01 5.3714D-02
 Trust test= 1.12D+00 RLast= 1.79D-02 DXMaxT set to 3.85D-01
 ITU=  1  1  1  0
 Use linear search instead of GDIIS.
     Eigenvalues ---    0.02035   0.02208   0.02208   0.02739   0.05476
     Eigenvalues ---    0.13174   0.16002   0.17473   0.31262   0.44771
     Eigenvalues ---    0.46337   0.46799   0.770991000.000001000.00000
     Eigenvalues --- 1000.000001000.000001000.000001000.000001000.00000
     Eigenvalues --- 1000.000001000.000001000.00000
 RFO step:  Lambda=-2.68587216D-06 EMin= 2.03462582D-02
 Quartic linear search produced a step of  0.09217.
 Iteration  1 RMS(Cart)=  0.00146774 RMS(Int)=  0.00000178
 Iteration  2 RMS(Cart)=  0.00000171 RMS(Int)=  0.00000024
 Iteration  3 RMS(Cart)=  0.00000000 RMS(Int)=  0.00000024
 Iteration  1 RMS(Cart)=  0.00000079 RMS(Int)=  0.00000245
 Variable       Old X    -DE/DX   Delta X   Delta X   Delta X     New X
                                 (Linear)    (Quad)   (Total)
    R1        2.57291  -0.00051  -0.00086  -0.00041  -0.00127   2.57165
    R2        1.90669   0.00012  -0.00010   0.00037   0.00026   1.90695
    R3        1.90245  -0.00005   0.00012  -0.00021  -0.00009   1.90236
    R4        2.28871  -0.00069   0.00060  -0.00061  -0.00001   2.28870
    R5        2.09097   0.00005  -0.00050   0.00035  -0.00015   2.09082
    R6        5.21547   0.00108   0.00026  -0.00027   0.00000   5.21547
    R7        4.68651   0.00254   0.00000   0.00000   0.00000   4.68651
    R8        4.49983  -0.00020  -0.00009  -0.00317  -0.00326   4.49658
    A1        2.08825  -0.00032  -0.00036  -0.00182  -0.00218   2.08608
    A2        2.11490   0.00034   0.00024   0.00208   0.00232   2.11722
    A3        2.08003  -0.00003   0.00012  -0.00026  -0.00014   2.07989
    A4        2.18341  -0.00040  -0.00042  -0.00014  -0.00056   2.18285
    A5        1.95840   0.00029   0.00072   0.00143   0.00215   1.96055
    A6        2.14137   0.00011  -0.00030  -0.00128  -0.00158   2.13979
    A7        1.57077  -0.00044   0.00000   0.00000   0.00000   1.57077
    A8        0.86269  -0.00037  -0.00004  -0.00009  -0.00014   0.86255
    A9        2.98325  -0.00029   0.00053   0.00004   0.00056   2.98381
   A10        3.14159   0.00000   0.00000   0.00000   0.00000   3.14159
    D1        0.00000   0.00000   0.00000   0.00000   0.00000   0.00000
    D2        3.14159   0.00000   0.00000   0.00000   0.00000  -3.14159
    D3       -3.14159   0.00000   0.00000   0.00000   0.00000   3.14159
    D4        0.00000   0.00000   0.00000   0.00000   0.00000   0.00000
    D5        3.14159   0.00000   0.00000   0.00000   0.00000   3.14159
         Item               Value     Threshold  Converged?
 Maximum Force            0.000513     0.000450     NO 
 RMS     Force            0.000181     0.000300     YES
 Maximum Displacement     0.003643     0.001800     NO 
 RMS     Displacement     0.001468     0.001200     NO 
 Predicted change in Energy=-1.691494D-06
 GradGradGradGradGradGradGradGradGradGradGradGradGradGradGradGradGradGrad

                          Input orientation:                          
 ---------------------------------------------------------------------
 Center     Atomic      Atomic             Coordinates (Angstroms)
 Number     Number       Type             X           Y           Z
 ---------------------------------------------------------------------
      1          7           0       -0.598922    0.000000   -1.251112
      2          6           0       -0.245358    0.000000    0.063012
      3          8           0        0.892663    0.000000    0.477428
      4          1           0        0.119815    0.000000   -1.959441
      5          1           0       -1.565398    0.000000   -1.532793
      6          1           0       -1.124430    0.000000    0.734866
      7          2           0        0.044024    0.000000    2.807705
 ---------------------------------------------------------------------
                    Distance matrix (angstroms):
                    1          2          3          4          5
     1  N    0.000000
     2  C    1.360856   0.000000
     3  O    2.283129   1.211129   0.000000
     4  H    1.009115   2.055156   2.556487   0.000000
     5  H    1.006688   2.071014   3.175383   1.738382   0.000000
     6  H    2.054329   1.106416   2.033456   2.967733   2.310136
     7  He   4.109425   2.759906   2.479996   4.767749   4.629273
                    6          7
     6  H    0.000000
     7  He   2.379485   0.000000
 Symmetry turned off by external request.
 Stoichiometry    CH3HeNO
 Framework group  C1[X(CH3HeNO)]
 Deg. of freedom    15
 Full point group                 C1      NOp   1
 Rotational constants (GHZ):     33.9000426      7.0899172      5.8635943
 Standard basis: 6-311++G(d,p) (5D, 7F)
    94 basis functions,   144 primitive gaussians,    97 cartesian basis functions
    13 alpha electrons       13 beta electrons
       nuclear repulsion energy        79.5812340186 Hartrees.
 NAtoms=    7 NActive=    7 NUniq=    7 SFac= 1.00D+00 NAtFMM=   60 NAOKFM=F Big=F
 Integral buffers will be    262144 words long.
 Raffenetti 2 integral format.
 Two-electron integral symmetry is turned off.
 One-electron integrals computed using PRISM.
 NBasis=    94 RedAO= T EigKep=  7.02D-04  NBF=    94
 NBsUse=    94 1.00D-06 EigRej= -1.00D+00 NBFU=    94
 Initial guess from the checkpoint file:  "FormHe_dst90.chk"
 B after Tr=    -0.000880    0.000000   -0.000492
         Rot=    1.000000    0.000000   -0.000106    0.000000 Ang=   0.01 deg.
 Keep R1 ints in memory in canonical form, NReq=10932290.
 Requested convergence on RMS density matrix=1.00D-08 within 128 cycles.
 Requested convergence on MAX density matrix=1.00D-06.
 Requested convergence on             energy=1.00D-06.
 No special actions if energy rises.
 SCF Done:  E(RB3LYP) =  -172.866817816     A.U. after    8 cycles
            NFock=  8  Conv=0.20D-08     -V/T= 2.0038
 Calling FoFJK, ICntrl=      2127 FMM=F ISym2X=0 I1Cent= 0 IOpClX= 0 NMat=1 NMatS=1 NMatT=0.
 -------------------------------------------------------------------
 Center     Atomic                   Forces (Hartrees/Bohr)
 Number     Number              X              Y              Z
 -------------------------------------------------------------------
      1        7          -0.000144380    0.000000014    0.000086023
      2        6           0.000412360   -0.000000063   -0.000474012
      3        8           0.000616610    0.000000024   -0.002977102
      4        1           0.000057579    0.000000000    0.000014687
      5        1           0.000037900    0.000000003   -0.000057896
      6        1           0.000016072    0.000000021    0.000075345
      7        2          -0.000996142    0.000000000    0.003332955
 -------------------------------------------------------------------
 Cartesian Forces:  Max     0.003332955 RMS     0.001018436

 GradGradGradGradGradGradGradGradGradGradGradGradGradGradGradGradGradGrad
 Berny optimization.
 Using GEDIIS/GDIIS optimizer.
 FormGI is forming the generalized inverse of G from B-inverse, IUseBI=4.
 Internal  Forces:  Max     0.002546694 RMS     0.000606886
 Search for a local minimum.
 Step number   5 out of a maximum of   33 on scan point     1 out of    19
 All quantities printed in internal units (Hartrees-Bohrs-Radians)
 Mixed Optimization -- En-DIIS/RFO-DIIS
 Swapping is turned off.
 Update second derivatives using D2CorX and points    1    2    3    4    5
 DE= -2.09D-06 DEPred=-1.69D-06 R= 1.24D+00
 TightC=F SS=  1.41D+00  RLast= 5.50D-03 DXNew= 6.4753D-01 1.6487D-02
 Trust test= 1.24D+00 RLast= 5.50D-03 DXMaxT set to 3.85D-01
 ITU=  1  1  1  1  0
     Eigenvalues ---    0.02035   0.02208   0.02208   0.02736   0.04977
     Eigenvalues ---    0.11706   0.16008   0.17003   0.31648   0.46170
     Eigenvalues ---    0.46663   0.47586   0.734631000.000001000.00000
     Eigenvalues --- 1000.000001000.000001000.000001000.000001000.00000
     Eigenvalues --- 1000.000001000.000001000.00000
 En-DIIS/RFO-DIIS IScMMF=        0 using points:     5    4
 RFO step:  Lambda=-3.95555924D-07.
 DidBck=F Rises=F RFO-DIIS coefs:    1.31103   -0.31103
 Iteration  1 RMS(Cart)=  0.00052110 RMS(Int)=  0.00000031
 Iteration  2 RMS(Cart)=  0.00000021 RMS(Int)=  0.00000021
 Iteration  1 RMS(Cart)=  0.00000066 RMS(Int)=  0.00000200
 Variable       Old X    -DE/DX   Delta X   Delta X   Delta X     New X
                                 (Linear)    (Quad)   (Total)
    R1        2.57165  -0.00003  -0.00039   0.00025  -0.00014   2.57151
    R2        1.90695   0.00003   0.00008   0.00000   0.00009   1.90704
    R3        1.90236  -0.00002  -0.00003  -0.00002  -0.00005   1.90231
    R4        2.28870  -0.00048   0.00000  -0.00023  -0.00023   2.28847
    R5        2.09082   0.00008  -0.00005   0.00015   0.00010   2.09092
    R6        5.21547   0.00102   0.00000  -0.00010  -0.00010   5.21537
    R7        4.68651   0.00255   0.00000   0.00000   0.00000   4.68651
    R8        4.49658  -0.00011  -0.00101  -0.00020  -0.00121   4.49536
    A1        2.08608  -0.00010  -0.00068  -0.00022  -0.00090   2.08517
    A2        2.11722   0.00011   0.00072   0.00026   0.00098   2.11819
    A3        2.07989  -0.00001  -0.00004  -0.00003  -0.00007   2.07982
    A4        2.18285  -0.00033  -0.00017   0.00010  -0.00007   2.18278
    A5        1.96055   0.00011   0.00067  -0.00010   0.00057   1.96111
    A6        2.13979   0.00022  -0.00049   0.00000  -0.00050   2.13929
    A7        1.57077  -0.00051   0.00000   0.00000   0.00000   1.57078
    A8        0.86255  -0.00030  -0.00004   0.00000  -0.00004   0.86250
    A9        2.98381  -0.00038   0.00017  -0.00014   0.00003   2.98384
   A10        3.14159   0.00000   0.00000   0.00000   0.00000   3.14159
    D1        0.00000   0.00000   0.00000   0.00000   0.00000   0.00000
    D2       -3.14159   0.00000   0.00000   0.00000   0.00000   3.14159
    D3        3.14159   0.00000   0.00000   0.00000   0.00000  -3.14159
    D4        0.00000   0.00000   0.00000   0.00000   0.00000   0.00000
    D5        3.14159   0.00000   0.00000   0.00000   0.00000   3.14159
         Item               Value     Threshold  Converged?
 Maximum Force            0.000148     0.000450     YES
 RMS     Force            0.000054     0.000300     YES
 Maximum Displacement     0.001466     0.001800     YES
 RMS     Displacement     0.000521     0.001200     YES
 Predicted change in Energy=-1.781279D-07
 Optimization completed.
    -- Stationary point found.
                           ----------------------------
                           !   Optimized Parameters   !
                           ! (Angstroms and Degrees)  !
 --------------------------                            --------------------------
 ! Name  Definition              Value          Derivative Info.                !
 --------------------------------------------------------------------------------
 ! R1    R(1,2)                  1.3609         -DE/DX =    0.0                 !
 ! R2    R(1,4)                  1.0091         -DE/DX =    0.0                 !
 ! R3    R(1,5)                  1.0067         -DE/DX =    0.0                 !
 ! R4    R(2,3)                  1.2111         -DE/DX =   -0.0005              !
 ! R5    R(2,6)                  1.1064         -DE/DX =    0.0001              !
 ! R6    R(2,7)                  2.7599         -DE/DX =    0.001               !
 ! R7    R(3,7)                  2.48           -DE/DX =    0.0025              !
 ! R8    R(6,7)                  2.3795         -DE/DX =   -0.0001              !
 ! A1    A(2,1,4)              119.5234         -DE/DX =   -0.0001              !
 ! A2    A(2,1,5)              121.3076         -DE/DX =    0.0001              !
 ! A3    A(4,1,5)              119.169          -DE/DX =    0.0                 !
 ! A4    A(1,2,3)              125.0681         -DE/DX =   -0.0003              !
 ! A5    A(1,2,6)              112.331          -DE/DX =    0.0001              !
 ! A6    A(3,2,6)              122.6008         -DE/DX =    0.0002              !
 ! A7    A(2,3,7)               89.9988         -DE/DX =   -0.0005              !
 ! A8    A(3,7,6)               49.4204         -DE/DX =   -0.0003              !
 ! A9    L(1,2,7,6,-1)         170.9599         -DE/DX =   -0.0004              !
 ! A10   L(1,2,7,6,-2)         180.0            -DE/DX =    0.0                 !
 ! D1    D(4,1,2,3)              0.0            -DE/DX =    0.0                 !
 ! D2    D(4,1,2,6)            180.0            -DE/DX =    0.0                 !
 ! D3    D(5,1,2,3)           -180.0            -DE/DX =    0.0                 !
 ! D4    D(5,1,2,6)              0.0            -DE/DX =    0.0                 !
 ! D5    D(1,2,3,7)            180.0            -DE/DX =    0.0                 !
 --------------------------------------------------------------------------------
 Iteration  1 RMS(Cart)=  0.00717393 RMS(Int)=  0.01617462
 Iteration  2 RMS(Cart)=  0.00011798 RMS(Int)=  0.01617415
 Iteration  3 RMS(Cart)=  0.00000134 RMS(Int)=  0.01617415
 Iteration  4 RMS(Cart)=  0.00000002 RMS(Int)=  0.01617415
 Iteration  1 RMS(Cart)=  0.00466441 RMS(Int)=  0.01384147
 Iteration  2 RMS(Cart)=  0.00395800 RMS(Int)=  0.01462832
 Iteration  3 RMS(Cart)=  0.00341843 RMS(Int)=  0.01643638
 Iteration  4 RMS(Cart)=  0.00295258 RMS(Int)=  0.01860456
 Iteration  5 RMS(Cart)=  0.00254553 RMS(Int)=  0.02078535
 Iteration  6 RMS(Cart)=  0.00219045 RMS(Int)=  0.02282651
 Iteration  7 RMS(Cart)=  0.00188171 RMS(Int)=  0.02467109
 Iteration  8 RMS(Cart)=  0.00161408 RMS(Int)=  0.02630612
 Iteration  9 RMS(Cart)=  0.00138274 RMS(Int)=  0.02773860
 Iteration 10 RMS(Cart)=  0.00118323 RMS(Int)=  0.02898415
 Iteration 11 RMS(Cart)=  0.00101153 RMS(Int)=  0.03006159
 Iteration 12 RMS(Cart)=  0.00086403 RMS(Int)=  0.03099013
 Iteration 13 RMS(Cart)=  0.00073752 RMS(Int)=  0.03178817
 Iteration 14 RMS(Cart)=  0.00062914 RMS(Int)=  0.03247261
 Iteration 15 RMS(Cart)=  0.00053641 RMS(Int)=  0.03305866
 Iteration 16 RMS(Cart)=  0.00045715 RMS(Int)=  0.03355983
 Iteration 17 RMS(Cart)=  0.00038944 RMS(Int)=  0.03398796
 Iteration 18 RMS(Cart)=  0.00033166 RMS(Int)=  0.03435339
 Iteration 19 RMS(Cart)=  0.00028237 RMS(Int)=  0.03466509
 Iteration 20 RMS(Cart)=  0.00024035 RMS(Int)=  0.03493081
 Iteration 21 RMS(Cart)=  0.00020454 RMS(Int)=  0.03515724
 Iteration 22 RMS(Cart)=  0.00017403 RMS(Int)=  0.03535010
 Iteration 23 RMS(Cart)=  0.00014805 RMS(Int)=  0.03551431
 Iteration 24 RMS(Cart)=  0.00012594 RMS(Int)=  0.03565410
 Iteration 25 RMS(Cart)=  0.00010712 RMS(Int)=  0.03577308
 Iteration 26 RMS(Cart)=  0.00009110 RMS(Int)=  0.03587431
 Iteration 27 RMS(Cart)=  0.00007747 RMS(Int)=  0.03596044
 Iteration 28 RMS(Cart)=  0.00006587 RMS(Int)=  0.03603370
 Iteration 29 RMS(Cart)=  0.00005601 RMS(Int)=  0.03609602
 Iteration 30 RMS(Cart)=  0.00004762 RMS(Int)=  0.03614902
 Iteration 31 RMS(Cart)=  0.00004049 RMS(Int)=  0.03619409
 Iteration 32 RMS(Cart)=  0.00003442 RMS(Int)=  0.03623241
 Iteration 33 RMS(Cart)=  0.00002927 RMS(Int)=  0.03626500
 Iteration 34 RMS(Cart)=  0.00002488 RMS(Int)=  0.03629271
 Iteration 35 RMS(Cart)=  0.00002115 RMS(Int)=  0.03631627
 Iteration 36 RMS(Cart)=  0.00001798 RMS(Int)=  0.03633629
 Iteration 37 RMS(Cart)=  0.00001529 RMS(Int)=  0.03635332
 Iteration 38 RMS(Cart)=  0.00001299 RMS(Int)=  0.03636780
 Iteration 39 RMS(Cart)=  0.00001105 RMS(Int)=  0.03638010
 Iteration 40 RMS(Cart)=  0.00000939 RMS(Int)=  0.03639057
 Iteration 41 RMS(Cart)=  0.00000798 RMS(Int)=  0.03639946
 Iteration 42 RMS(Cart)=  0.00000678 RMS(Int)=  0.03640702
 Iteration 43 RMS(Cart)=  0.00000577 RMS(Int)=  0.03641345
 Iteration 44 RMS(Cart)=  0.00000490 RMS(Int)=  0.03641891
 Iteration 45 RMS(Cart)=  0.00000417 RMS(Int)=  0.03642355
 Iteration 46 RMS(Cart)=  0.00000354 RMS(Int)=  0.03642750
 Iteration 47 RMS(Cart)=  0.00000301 RMS(Int)=  0.03643086
 Iteration 48 RMS(Cart)=  0.00000256 RMS(Int)=  0.03643371
 Iteration 49 RMS(Cart)=  0.00000218 RMS(Int)=  0.03643613
 Iteration 50 RMS(Cart)=  0.00000185 RMS(Int)=  0.03643819
 Iteration 51 RMS(Cart)=  0.00000157 RMS(Int)=  0.03643995
 Iteration 52 RMS(Cart)=  0.00000134 RMS(Int)=  0.03644144
 Iteration 53 RMS(Cart)=  0.00000114 RMS(Int)=  0.03644270
 Iteration 54 RMS(Cart)=  0.00000097 RMS(Int)=  0.03644378
 GradGradGradGradGradGradGradGradGradGradGradGradGradGradGradGradGradGrad

                          Input orientation:                          
 ---------------------------------------------------------------------
 Center     Atomic      Atomic             Coordinates (Angstroms)
 Number     Number       Type             X           Y           Z
 ---------------------------------------------------------------------
      1          7           0       -0.594632    0.000000   -1.270257
      2          6           0       -0.242968    0.000000    0.044300
      3          8           0        0.826078    0.000001    0.490435
      4          1           0        0.125787    0.000000   -1.976940
      5          1           0       -1.560402    0.000000   -1.554256
      6          1           0       -1.105480    0.000001    0.752736
      7          2           0        0.074011   -0.000001    2.853646
 ---------------------------------------------------------------------
                    Distance matrix (angstroms):
                    1          2          3          4          5
     1  N    0.000000
     2  C    1.360782   0.000000
     3  O    2.262401   1.158403   0.000000
     4  H    1.009160   2.054602   2.564829   0.000000
     5  H    1.006661   2.071476   3.142619   1.738360   0.000000
     6  H    2.086497   1.116158   1.949287   2.994520   2.351418
     7  He   4.177758   2.827173   2.479994   4.830864   4.701161
                    6          7
     6  H    0.000000
     7  He   2.409362   0.000000
 Symmetry turned off by external request.
 Stoichiometry    CH3HeNO
 Framework group  C1[X(CH3HeNO)]
 Deg. of freedom    15
 Full point group                 C1      NOp   1
 Rotational constants (GHZ):     37.8581425      6.9288089      5.8568808
 Standard basis: 6-311++G(d,p) (5D, 7F)
    94 basis functions,   144 primitive gaussians,    97 cartesian basis functions
    13 alpha electrons       13 beta electrons
       nuclear repulsion energy        80.5994433118 Hartrees.
 NAtoms=    7 NActive=    7 NUniq=    7 SFac= 1.00D+00 NAtFMM=   60 NAOKFM=F Big=F
 Integral buffers will be    262144 words long.
 Raffenetti 2 integral format.
 Two-electron integral symmetry is turned off.
 One-electron integrals computed using PRISM.
 NBasis=    94 RedAO= T EigKep=  7.08D-04  NBF=    94
 NBsUse=    94 1.00D-06 EigRej= -1.00D+00 NBFU=    94
 Initial guess from the checkpoint file:  "FormHe_dst90.chk"
 B after Tr=    -0.029905    0.000000   -0.004638
         Rot=    0.999993    0.000000    0.003817    0.000000 Ang=  -0.44 deg.
 ExpMin= 3.60D-02 ExpMax= 8.59D+03 ExpMxC= 1.30D+03 IAcc=3 IRadAn=         5 AccDes= 0.00D+00
 Harris functional with IExCor=  402 and IRadAn=       5 diagonalized for initial guess.
 HarFok:  IExCor=  402 AccDes= 0.00D+00 IRadAn=         5 IDoV= 1 UseB2=F ITyADJ=14
 ICtDFT=  3500011 ScaDFX=  1.000000  1.000000  1.000000  1.000000
 FoFCou: FMM=F IPFlag=           0 FMFlag=      100000 FMFlg1=           0
         NFxFlg=           0 DoJE=T BraDBF=F KetDBF=T FulRan=T
         wScrn=  0.000000 ICntrl=     500 IOpCl=  0 I1Cent=   200000004 NGrid=           0
         NMat0=    1 NMatS0=      1 NMatT0=    0 NMatD0=    1 NMtDS0=    0 NMtDT0=    0
 Symmetry not used in FoFCou.
 Keep R1 ints in memory in canonical form, NReq=10932290.
 Requested convergence on RMS density matrix=1.00D-08 within 128 cycles.
 Requested convergence on MAX density matrix=1.00D-06.
 Requested convergence on             energy=1.00D-06.
 No special actions if energy rises.
 SCF Done:  E(RB3LYP) =  -172.861223122     A.U. after   10 cycles
            NFock= 10  Conv=0.30D-08     -V/T= 2.0025
 Calling FoFJK, ICntrl=      2127 FMM=F ISym2X=0 I1Cent= 0 IOpClX= 0 NMat=1 NMatS=1 NMatT=0.
 -------------------------------------------------------------------
 Center     Atomic                   Forces (Hartrees/Bohr)
 Number     Number              X              Y              Z
 -------------------------------------------------------------------
      1        7          -0.000904736   -0.000000050   -0.004592928
      2        6          -0.088373186    0.000000181   -0.013053197
      3        8           0.096829802   -0.000000033    0.024486466
      4        1          -0.000166936   -0.000000001   -0.000360600
      5        1           0.000432958   -0.000000012    0.000403914
      6        1          -0.006910594   -0.000000085   -0.009855902
      7        2          -0.000907306   -0.000000001    0.002972247
 -------------------------------------------------------------------
 Cartesian Forces:  Max     0.096829802 RMS     0.029384786

 GradGradGradGradGradGradGradGradGradGradGradGradGradGradGradGradGradGrad
 Berny optimization.
 FormGI is forming the generalized inverse of G from B-inverse, IUseBI=4.
 Internal  Forces:  Max     0.090133721 RMS     0.019888731
 Search for a local minimum.
 Step number   1 out of a maximum of   33 on scan point     2 out of    19
 All quantities printed in internal units (Hartrees-Bohrs-Radians)
 Mixed Optimization -- RFO/linear search
 Second derivative matrix not updated -- first step.
 ITU=  0
     Eigenvalues ---    0.02049   0.02208   0.02208   0.02747   0.04964
     Eigenvalues ---    0.11703   0.16008   0.16997   0.31524   0.46143
     Eigenvalues ---    0.46592   0.47352   0.716851000.000001000.00000
     Eigenvalues --- 1000.000001000.000001000.000001000.000001000.00000
     Eigenvalues --- 1000.000001000.000001000.00000
 RFO step:  Lambda=-1.17380625D-02 EMin= 2.04900573D-02
 Linear search not attempted -- first point.
 Iteration  1 RMS(Cart)=  0.03581289 RMS(Int)=  0.00054902
 Iteration  2 RMS(Cart)=  0.00045750 RMS(Int)=  0.00022690
 Iteration  3 RMS(Cart)=  0.00000003 RMS(Int)=  0.00022690
 Iteration  1 RMS(Cart)=  0.00002843 RMS(Int)=  0.00006072
 Iteration  2 RMS(Cart)=  0.00001702 RMS(Int)=  0.00006437
 Iteration  3 RMS(Cart)=  0.00001482 RMS(Int)=  0.00007224
 Iteration  4 RMS(Cart)=  0.00001272 RMS(Int)=  0.00008150
 Iteration  5 RMS(Cart)=  0.00001088 RMS(Int)=  0.00009071
 Iteration  6 RMS(Cart)=  0.00000929 RMS(Int)=  0.00009927
 Iteration  7 RMS(Cart)=  0.00000794 RMS(Int)=  0.00010696
 Iteration  8 RMS(Cart)=  0.00000678 RMS(Int)=  0.00011375
 Iteration  9 RMS(Cart)=  0.00000579 RMS(Int)=  0.00011968
 Iteration 10 RMS(Cart)=  0.00000495 RMS(Int)=  0.00012484
 Iteration 11 RMS(Cart)=  0.00000423 RMS(Int)=  0.00012929
 Iteration 12 RMS(Cart)=  0.00000361 RMS(Int)=  0.00013314
 Iteration 13 RMS(Cart)=  0.00000309 RMS(Int)=  0.00013644
 Iteration 14 RMS(Cart)=  0.00000264 RMS(Int)=  0.00013928
 Iteration 15 RMS(Cart)=  0.00000225 RMS(Int)=  0.00014172
 Iteration 16 RMS(Cart)=  0.00000192 RMS(Int)=  0.00014381
 Iteration 17 RMS(Cart)=  0.00000164 RMS(Int)=  0.00014560
 Iteration 18 RMS(Cart)=  0.00000140 RMS(Int)=  0.00014713
 Iteration 19 RMS(Cart)=  0.00000120 RMS(Int)=  0.00014845
 Iteration 20 RMS(Cart)=  0.00000102 RMS(Int)=  0.00014957
 Iteration 21 RMS(Cart)=  0.00000088 RMS(Int)=  0.00015053
 Variable       Old X    -DE/DX   Delta X   Delta X   Delta X     New X
                                 (Linear)    (Quad)   (Total)
    R1        2.57151   0.00456   0.00000  -0.00826  -0.00826   2.56324
    R2        1.90704   0.00013   0.00000  -0.00108  -0.00108   1.90596
    R3        1.90231  -0.00053   0.00000  -0.00015  -0.00015   1.90216
    R4        2.18906   0.09013   0.00000   0.10640   0.10617   2.29523
    R5        2.10923  -0.00362   0.00000  -0.01210  -0.01186   2.09737
    R6        5.34258   0.00128   0.00000   0.05173   0.05242   5.39500
    R7        4.68651  -0.00015   0.00000   0.00000   0.00000   4.68651
    R8        4.55303   0.00742   0.00000   0.18406   0.18413   4.73716
    A1        2.08517   0.00064   0.00000   0.01300   0.01300   2.09818
    A2        2.11819  -0.00057   0.00000  -0.01588  -0.01588   2.10231
    A3        2.07982  -0.00007   0.00000   0.00288   0.00288   2.08269
    A4        2.22754  -0.00298   0.00000  -0.02911  -0.02918   2.19836
    A5        1.99703  -0.00272   0.00000  -0.01815  -0.01807   1.97897
    A6        2.05861   0.00570   0.00000   0.04726   0.04724   2.10586
    A7        1.65804  -0.02217   0.00000   0.00000   0.00000   1.65804
    A8        0.81967   0.01850   0.00000   0.01562   0.01452   0.83419
    A9        2.99255  -0.00002   0.00000   0.04652   0.04637   3.03893
   A10        3.14159   0.00000   0.00000   0.00000   0.00000   3.14159
    D1        0.00000   0.00000   0.00000  -0.00001  -0.00001  -0.00001
    D2        3.14159   0.00000   0.00000   0.00001   0.00001  -3.14159
    D3       -3.14159   0.00000   0.00000  -0.00001  -0.00001   3.14159
    D4        0.00000   0.00000   0.00000   0.00001   0.00001   0.00001
    D5        3.14159   0.00000   0.00000   0.00000   0.00000   3.14159
         Item               Value     Threshold  Converged?
 Maximum Force            0.065189     0.000450     NO 
 RMS     Force            0.017070     0.000300     NO 
 Maximum Displacement     0.098218     0.001800     NO 
 RMS     Displacement     0.035775     0.001200     NO 
 Predicted change in Energy=-6.183388D-03
 GradGradGradGradGradGradGradGradGradGradGradGradGradGradGradGradGradGrad

                          Input orientation:                          
 ---------------------------------------------------------------------
 Center     Atomic      Atomic             Coordinates (Angstroms)
 Number     Number       Type             X           Y           Z
 ---------------------------------------------------------------------
      1          7           0       -0.592996    0.000001   -1.271408
      2          6           0       -0.271963    0.000001    0.046464
      3          8           0        0.852053   -0.000004    0.506686
      4          1           0        0.133655    0.000002   -1.970859
      5          1           0       -1.556802    0.000001   -1.561721
      6          1           0       -1.157455   -0.000005    0.715598
      7          2           0        0.115903    0.000004    2.874904
 ---------------------------------------------------------------------
                    Distance matrix (angstroms):
                    1          2          3          4          5
     1  N    0.000000
     2  C    1.356410   0.000000
     3  O    2.291240   1.214585   0.000000
     4  H    1.008590   2.057697   2.579598   0.000000
     5  H    1.006581   2.058415   3.175042   1.739264   0.000000
     6  H    2.065624   1.109881   2.020338   2.980606   2.312068
     7  He   4.206475   2.854910   2.479994   4.845795   4.741474
                    6          7
     6  H    0.000000
     7  He   2.506800   0.000000
 Symmetry turned off by external request.
 Stoichiometry    CH3HeNO
 Framework group  C1[X(CH3HeNO)]
 Deg. of freedom    15
 Full point group                 C1      NOp   1
 Rotational constants (GHZ):     36.7707792      6.8038610      5.7414879
 Standard basis: 6-311++G(d,p) (5D, 7F)
    94 basis functions,   144 primitive gaussians,    97 cartesian basis functions
    13 alpha electrons       13 beta electrons
       nuclear repulsion energy        79.3680835117 Hartrees.
 NAtoms=    7 NActive=    7 NUniq=    7 SFac= 1.00D+00 NAtFMM=   60 NAOKFM=F Big=F
 Integral buffers will be    262144 words long.
 Raffenetti 2 integral format.
 Two-electron integral symmetry is turned off.
 One-electron integrals computed using PRISM.
 NBasis=    94 RedAO= T EigKep=  7.00D-04  NBF=    94
 NBsUse=    94 1.00D-06 EigRej= -1.00D+00 NBFU=    94
 Initial guess from the checkpoint file:  "FormHe_dst90.chk"
 B after Tr=     0.006678   -0.000001    0.009906
         Rot=    1.000000    0.000000   -0.000939    0.000002 Ang=   0.11 deg.
 ExpMin= 3.60D-02 ExpMax= 8.59D+03 ExpMxC= 1.30D+03 IAcc=3 IRadAn=         5 AccDes= 0.00D+00
 Harris functional with IExCor=  402 and IRadAn=       5 diagonalized for initial guess.
 HarFok:  IExCor=  402 AccDes= 0.00D+00 IRadAn=         5 IDoV= 1 UseB2=F ITyADJ=14
 ICtDFT=  3500011 ScaDFX=  1.000000  1.000000  1.000000  1.000000
 FoFCou: FMM=F IPFlag=           0 FMFlag=      100000 FMFlg1=           0
         NFxFlg=           0 DoJE=T BraDBF=F KetDBF=T FulRan=T
         wScrn=  0.000000 ICntrl=     500 IOpCl=  0 I1Cent=   200000004 NGrid=           0
         NMat0=    1 NMatS0=      1 NMatT0=    0 NMatD0=    1 NMtDS0=    0 NMtDT0=    0
 Symmetry not used in FoFCou.
 Keep R1 ints in memory in canonical form, NReq=10932290.
 Requested convergence on RMS density matrix=1.00D-08 within 128 cycles.
 Requested convergence on MAX density matrix=1.00D-06.
 Requested convergence on             energy=1.00D-06.
 No special actions if energy rises.
 SCF Done:  E(RB3LYP) =  -172.866671992     A.U. after   10 cycles
            NFock= 10  Conv=0.26D-08     -V/T= 2.0038
 Calling FoFJK, ICntrl=      2127 FMM=F ISym2X=0 I1Cent= 0 IOpClX= 0 NMat=1 NMatS=1 NMatT=0.
 -------------------------------------------------------------------
 Center     Atomic                   Forces (Hartrees/Bohr)
 Number     Number              X              Y              Z
 -------------------------------------------------------------------
      1        7          -0.002057945    0.000000331   -0.000617416
      2        6           0.004439303   -0.000001577    0.010486940
      3        8          -0.001598385    0.000000612   -0.008226904
      4        1           0.000668636    0.000000008    0.000159279
      5        1           0.000181781    0.000000080   -0.001037204
      6        1          -0.000657112    0.000000537   -0.003948539
      7        2          -0.000976278    0.000000009    0.003183845
 -------------------------------------------------------------------
 Cartesian Forces:  Max     0.010486940 RMS     0.003332598

 GradGradGradGradGradGradGradGradGradGradGradGradGradGradGradGradGradGrad
 Berny optimization.
 Using GEDIIS/GDIIS optimizer.
 FormGI is forming the generalized inverse of G from B-inverse, IUseBI=4.
 Internal  Forces:  Max     0.004407353 RMS     0.001757564
 Search for a local minimum.
 Step number   2 out of a maximum of   33 on scan point     2 out of    19
 All quantities printed in internal units (Hartrees-Bohrs-Radians)
 Mixed Optimization -- RFO/linear search
 Update second derivatives using D2CorX and points    1    2
 DE= -5.45D-03 DEPred=-6.18D-03 R= 8.81D-01
 TightC=F SS=  1.41D+00  RLast= 2.33D-01 DXNew= 6.4753D-01 6.9929D-01
 Trust test= 8.81D-01 RLast= 2.33D-01 DXMaxT set to 6.48D-01
 ITU=  1  0
 Use linear search instead of GDIIS.
     Eigenvalues ---    0.02137   0.02208   0.02208   0.02773   0.04797
     Eigenvalues ---    0.11575   0.16009   0.17205   0.31679   0.46193
     Eigenvalues ---    0.46787   0.49022   0.752831000.000001000.00000
     Eigenvalues --- 1000.000001000.000001000.000001000.000001000.00000
     Eigenvalues --- 1000.000001000.000001000.00000
 RFO step:  Lambda=-2.61849404D-04 EMin= 2.13694556D-02
 Quartic linear search produced a step of -0.01152.
 Iteration  1 RMS(Cart)=  0.01133912 RMS(Int)=  0.00009011
 Iteration  2 RMS(Cart)=  0.00007195 RMS(Int)=  0.00002598
 Iteration  3 RMS(Cart)=  0.00000000 RMS(Int)=  0.00002598
 Iteration  1 RMS(Cart)=  0.00000115 RMS(Int)=  0.00000308
 Iteration  2 RMS(Cart)=  0.00000088 RMS(Int)=  0.00000326
 Variable       Old X    -DE/DX   Delta X   Delta X   Delta X     New X
                                 (Linear)    (Quad)   (Total)
    R1        2.56324   0.00174   0.00010   0.00554   0.00564   2.56888
    R2        1.90596   0.00037   0.00001   0.00071   0.00072   1.90668
    R3        1.90216   0.00012   0.00000   0.00028   0.00028   1.90244
[...]
     Eigenvalues ---    0.10227   0.12978   0.17243   0.25843   0.36087
     Eigenvalues ---    0.46137   0.47027   0.523411000.000001000.00000
     Eigenvalues --- 1000.000001000.000001000.000001000.000001000.00000
     Eigenvalues --- 1000.000001000.000001000.00000
 En-DIIS/RFO-DIIS IScMMF=        0 using points:     3    2
 RFO step:  Lambda=-1.16748198D-07.
 DidBck=F Rises=F RFO-DIIS coefs:    0.99993    0.00007
 Iteration  1 RMS(Cart)=  0.00003657 RMS(Int)=  0.00000095
 Iteration  2 RMS(Cart)=  0.00000002 RMS(Int)=  0.00000018
 SLEqS3 Cycle:   211 Max:0.538599E-10 RMS:0.187596E-10 Conv:0.122899E-11
 SLEqS3 Cycle:   211 Max:0.513343E-06 RMS:0.173217E-06 Conv:0.122899E-11
 Iteration  1 RMS(Cart)=  0.00000011 RMS(Int)=  0.00000023
 Variable       Old X    -DE/DX   Delta X   Delta X   Delta X     New X
                                 (Linear)    (Quad)   (Total)
    R1        2.57171  -0.00004   0.00000  -0.00007  -0.00007   2.57164
    R2        1.90719  -0.00001   0.00000  -0.00001  -0.00001   1.90718
    R3        1.90227   0.00002   0.00000   0.00003   0.00003   1.90231
    R4        2.29031  -0.00086   0.00000  -0.00006  -0.00005   2.29025
    R5        2.09007  -0.00015   0.00000  -0.00002  -0.00002   2.09005
    R6        6.97681   0.00062   0.00000  -0.00005  -0.00005   6.97675
    R7        4.68650   0.00149   0.00000   0.00000   0.00000   4.68650
    R8        8.29383   0.00019   0.00000   0.00001   0.00001   8.29384
    A1        2.08485   0.00001   0.00000   0.00007   0.00007   2.08491
    A2        2.11844   0.00001   0.00000   0.00010   0.00010   2.11854
    A3        2.07990  -0.00002   0.00000  -0.00016  -0.00016   2.07973
    A4        2.18065   0.00002   0.00000   0.00001   0.00001   2.18066
    A5        1.96150   0.00012   0.00000  -0.00006  -0.00006   1.96144
    A6        2.14103  -0.00014   0.00000   0.00005   0.00005   2.14108
    A7        3.14158  -0.00012   0.00000   0.00000   0.00000   3.14158
    A8        0.21376   0.00005   0.00000  -0.00001  -0.00001   0.21375
    A9        4.10253  -0.00010   0.00000  -0.00001  -0.00001   4.10252
   A10        3.14163   0.00000   0.00000   0.00000   0.00000   3.14163
    D1        0.00022   0.00000   0.00000  -0.00001  -0.00001   0.00021
    D2       -3.14140   0.00000   0.00000  -0.00001  -0.00001  -3.14142
    D3        3.14132   0.00000   0.00000   0.00002   0.00002   3.14135
    D4       -0.00031   0.00000   0.00000   0.00002   0.00002  -0.00028
    D5        3.12738   0.00000   0.00000   0.00000   0.00000   3.12738
         Item               Value     Threshold  Converged?
 Maximum Force            0.000043     0.000450     YES
 RMS     Force            0.000015     0.000300     YES
 Maximum Displacement     0.000104     0.001800     YES
 RMS     Displacement     0.000037     0.001200     YES
 Predicted change in Energy=-6.434939D-09
 Optimization completed.
    -- Stationary point found.
                           ----------------------------
                           !   Optimized Parameters   !
                           ! (Angstroms and Degrees)  !
 --------------------------                            --------------------------
 ! Name  Definition              Value          Derivative Info.                !
 --------------------------------------------------------------------------------
 ! R1    R(1,2)                  1.3609         -DE/DX =    0.0                 !
 ! R2    R(1,4)                  1.0092         -DE/DX =    0.0                 !
 ! R3    R(1,5)                  1.0066         -DE/DX =    0.0                 !
 ! R4    R(2,3)                  1.212          -DE/DX =   -0.0009              !
 ! R5    R(2,6)                  1.106          -DE/DX =   -0.0001              !
 ! R6    R(2,7)                  3.692          -DE/DX =    0.0006              !
 ! R7    R(3,7)                  2.48           -DE/DX =    0.0015              !
 ! R8    R(6,7)                  4.3889         -DE/DX =    0.0002              !
 ! A1    A(2,1,4)              119.453          -DE/DX =    0.0                 !
 ! A2    A(2,1,5)              121.3776         -DE/DX =    0.0                 !
 ! A3    A(4,1,5)              119.1694         -DE/DX =    0.0                 !
 ! A4    A(1,2,3)              124.9422         -DE/DX =    0.0                 !
 ! A5    A(1,2,6)              112.3858         -DE/DX =    0.0001              !
 ! A6    A(3,2,6)              122.672          -DE/DX =   -0.0001              !
 ! A7    A(2,3,7)              179.9994         -DE/DX =   -0.0001              !
 ! A8    A(3,7,6)               12.2474         -DE/DX =    0.0                 !
 ! A9    L(1,2,7,6,-1)         235.0574         -DE/DX =   -0.0001              !
 ! A10   L(1,2,7,6,-2)         180.0019         -DE/DX =    0.0                 !
 ! D1    D(4,1,2,3)              0.0127         -DE/DX =    0.0                 !
 ! D2    D(4,1,2,6)           -179.9892         -DE/DX =    0.0                 !
 ! D3    D(5,1,2,3)            179.9844         -DE/DX =    0.0                 !
 ! D4    D(5,1,2,6)             -0.0175         -DE/DX =    0.0                 !
 ! D5    D(1,2,3,7)            179.1855         -DE/DX =    0.0                 !
 --------------------------------------------------------------------------------
 GradGradGradGradGradGradGradGradGradGradGradGradGradGradGradGradGradGrad

 Summary of Optimized Potential Surface Scan
                           1         2         3         4         5
     Eigenvalues --  -172.86682-172.86685-172.86683-172.86680-172.86679
           R1           1.36086   1.36066   1.36093   1.36126   1.36104
           R2           1.00911   1.00919   1.00920   1.00922   1.00922
           R3           1.00669   1.00668   1.00666   1.00663   1.00667
           R4           1.21113   1.21090   1.21098   1.21122   1.21112
           R5           1.10642   1.10679   1.10681   1.10669   1.10670
           R6           2.75991   2.85307   2.94274   3.02856   3.10992
           R7           2.48000   2.47999   2.47999   2.47999   2.47999
           R8           2.37949   2.54066   2.69817   2.85276   3.00109
           A1         119.52337 119.48374 119.44765 119.43563 119.45497
           A2         121.30763 121.35891 121.37393 121.39039 121.37477
           A3         119.16900 119.15736 119.17842 119.17399 119.17025
           A4         125.06814 125.08622 125.09948 125.06576 125.07065
           A5         112.33102 112.36177 112.37576 112.34928 112.33000
           A6         122.60084 122.55201 122.52476 122.58495 122.59935
           A7          89.99876  94.99870  99.99892 104.99887 109.99897
           A8          49.42044  47.75687  45.99309  44.14783  42.23485
           A9         170.95985 174.92447 178.80712 182.65805 186.39486
           A10        180.00000 180.00075 179.99756 180.09460 180.14856
           D1          -0.00001  -0.00354   0.00257  -0.00122  -0.00262
           D2         180.00001 180.00364-180.00285 179.99414 179.99782
           D3        -180.00002-180.00404 180.00276-179.99206-179.99543
           D4           0.00001   0.00314  -0.00266   0.00330   0.00502
           D5         180.00000 179.99997-179.99744 179.88767 179.80930
                           6         7         8         9        10
     Eigenvalues --  -172.86680-172.86684-172.86689-172.86695-172.86701
           R1           1.36119   1.36106   1.36108   1.36102   1.36098
           R2           1.00921   1.00923   1.00923   1.00923   1.00924
           R3           1.00669   1.00668   1.00669   1.00669   1.00669
           R4           1.21128   1.21135   1.21155   1.21154   1.21174
           R5           1.10652   1.10650   1.10638   1.10635   1.10624
           R6           3.18693   3.25910   3.32639   3.38832   3.44506
           R7           2.47999   2.47999   2.47999   2.47999   2.47999
           R8           3.14583   3.28140   3.41332   3.53737   3.65553
           A1         119.44767 119.45394 119.45391 119.45859 119.46433
           A2         121.38285 121.38370 121.38939 121.38572 121.38632
           A3         119.16948 119.16236 119.15670 119.15569 119.14934
           A4         125.02315 125.04888 125.01987 125.02949 125.02331
           A5         112.27789 112.32789 112.31278 112.33295 112.34326
           A6         122.69896 122.62323 122.66735 122.63757 122.63342
           A7         114.99904 119.99907 124.99918 129.99926 134.99936
           A8          40.26175  38.25318  36.19819  34.11652  32.00501
           A9         190.12570 193.72785 197.33874 200.86757 204.37819
           A10        180.17437 180.20421 180.20016 180.21062 180.20906
           D1          -0.00335  -0.00267  -0.00190  -0.00275  -0.00308
           D2         179.99749 179.99830 179.99917 179.99841 179.99778
           D3        -179.99452-179.99409-179.99512-179.99349-179.99283
           D4           0.00631   0.00689   0.00595   0.00768   0.00803
           D5         179.75809 179.69325 179.67296 179.62373 179.58886
                          11        12        13        14        15
     Eigenvalues --  -172.86708-172.86715-172.86722-172.86729-172.86734
           R1           1.36106   1.36085   1.36098   1.36088   1.36087
           R2           1.00923   1.00928   1.00923   1.00925   1.00927
           R3           1.00669   1.00666   1.00668   1.00667   1.00666
           R4           1.21166   1.21158   1.21176   1.21196   1.21198
           R5           1.10620   1.10613   1.10609   1.10609   1.10611
           R6           3.49603   3.54131   3.58103   3.61486   3.64254
           R7           2.47999   2.47999   2.47999   2.47999   2.47999
           R8           3.76802   3.86975   3.96873   4.05765   4.13970
           A1         119.45623 119.43884 119.43712 119.43730 119.44669
           A2         121.38993 121.40373 121.40275 121.40400 121.40523
           A3         119.15384 119.15742 119.16012 119.15870 119.14808
           A4         124.97935 125.03150 124.96376 124.98239 124.97976
           A5         112.31326 112.39707 112.35874 112.39008 112.38913
           A6         122.70739 122.57143 122.67750 122.62753 122.63111
           A7         139.99956 144.99957 149.99949 154.99936 159.99935
           A8          29.86105  27.72086  25.53476  23.35386  21.15306
           A9         207.89327 211.28594 214.77753 218.16400 221.55530
           A10        180.19865 180.20380 180.19591 180.21164 180.19144
           D1          -0.00376  -0.00467  -0.00481   0.00061   0.00512
           D2         179.99808 179.99609 179.99671-179.99937-179.99594
           D3        -179.99370-179.99186-179.99279-179.99794 179.99769
           D4           0.00814   0.00890   0.00873   0.00208  -0.00337
           D5         179.56451 179.49775 179.44495 179.29751 179.22647
                          16        17        18        19
     Eigenvalues --  -172.86738-172.86741-172.86743-172.86743
           R1           1.36085   1.36080   1.36080   1.36089
           R2           1.00926   1.00925   1.00929   1.00924
           R3           1.00667   1.00668   1.00673   1.00664
           R4           1.21195   1.21191   1.21175   1.21198
           R5           1.10610   1.10607   1.10609   1.10602
           R6           3.66409   3.67951   3.68864   3.69197
           R7           2.47999   2.47999   2.47999   2.47999
           R8           4.21405   4.28040   4.33926   4.38891
           A1         119.46280 119.48399 119.56612 119.45297
           A2         121.40443 121.40465 121.45269 121.37765
           A3         119.13276 119.11136 118.98119 119.16938
           A4         124.97395 124.96340 124.93420 124.94219
           A5         112.38142 112.38258 112.35452 112.38579
           A6         122.64463 122.65402 122.71128 122.67202
           A7         164.99936 169.99936 174.99947 179.99938
           A8          18.93911  16.71622  14.47776  12.24743
           A9         224.93751 228.31560 231.70646 235.05740
           A10        180.15478 180.10913 180.05550 180.00190
           D1           0.00878   0.01168   0.01553   0.01273
           D2        -179.99270-179.99004-179.98384-179.98922
           D3         179.99352 179.98956 179.98416 179.98442
           D4          -0.00796  -0.01217  -0.01521  -0.01753
           D5         179.19004 179.17250 179.16610 179.18547
                          Input orientation:                          
 ---------------------------------------------------------------------
 Center     Atomic      Atomic             Coordinates (Angstroms)
 Number     Number       Type             X           Y           Z
 ---------------------------------------------------------------------
      1          7           0       -0.472542    0.001006   -1.263507
      2          6           0       -0.841266   -0.002037    0.046476
      3          8           0       -0.073018   -0.000143    0.983857
      4          1           0        0.507843    0.004968   -1.503084
      5          1           0       -1.157800   -0.001037   -2.000895
      6          1           0       -1.939798   -0.006491    0.174845
      7          2           0        1.498976    0.003733    2.901972
 ---------------------------------------------------------------------
                    Distance matrix (angstroms):
                    1          2          3          4          5
     1  N    0.000000
     2  C    1.360890   0.000000
     3  O    2.282600   1.211978   0.000000
     4  H    1.009241   2.054576   2.553880   0.000000
     5  H    1.006640   2.071696   3.175767   1.738453   0.000000
     6  H    2.054690   1.106016   2.034553   2.967579   2.312011
     7  He   4.608482   3.691967   2.479989   4.515182   5.576432
                    6          7
     6  H    0.000000
     7  He   4.388906   0.000000
 Symmetry turned off by external request.
 Stoichiometry    CH3HeNO
 Framework group  C1[X(CH3HeNO)]
 Deg. of freedom    15
 Full point group                 C1      NOp   1
 Rotational constants (GHZ):     48.0657593      5.7261432      5.1165958

 **********************************************************************

            Population analysis using the SCF density.

 **********************************************************************

 Alpha  occ. eigenvalues --  -19.10431 -14.35395 -10.28459  -1.05257  -0.92506
 Alpha  occ. eigenvalues --   -0.64125  -0.62119  -0.57135  -0.49541  -0.42886
 Alpha  occ. eigenvalues --   -0.42011  -0.29257  -0.27459
 Alpha virt. eigenvalues --   -0.01975   0.00043   0.00511   0.03010   0.05953
 Alpha virt. eigenvalues --    0.07207   0.07934   0.10889   0.12667   0.13189
 Alpha virt. eigenvalues --    0.13811   0.15285   0.17637   0.19289   0.23271
 Alpha virt. eigenvalues --    0.23685   0.23977   0.28472   0.29534   0.34481
 Alpha virt. eigenvalues --    0.36407   0.44125   0.49490   0.51456   0.52282
 Alpha virt. eigenvalues --    0.63000   0.65249   0.68238   0.74852   0.77984
 Alpha virt. eigenvalues --    0.89032   0.94291   1.03051   1.06601   1.07693
 Alpha virt. eigenvalues --    1.09694   1.14772   1.15416   1.16373   1.27917
 Alpha virt. eigenvalues --    1.29772   1.31664   1.43871   1.47064   1.51037
 Alpha virt. eigenvalues --    1.56405   1.65787   1.69087   1.73378   1.78380
 Alpha virt. eigenvalues --    1.78643   1.94493   2.05349   2.27655   2.32910
 Alpha virt. eigenvalues --    2.39641   2.42258   2.51220   2.58387   2.72416
 Alpha virt. eigenvalues --    2.75542   2.80010   2.90071   2.91081   3.00480
 Alpha virt. eigenvalues --    3.20212   3.35697   3.40865   3.56652   3.62300
 Alpha virt. eigenvalues --    3.80960   3.92725   4.73397   4.87447   5.01785
 Alpha virt. eigenvalues --    5.15757   5.73526   6.19417  23.89337  35.57766
 Alpha virt. eigenvalues --   49.97625
          Condensed to atoms (all electrons):
               1          2          3          4          5          6
     1  N    6.870486   0.236010  -0.188753   0.336098   0.305391  -0.223322
     2  C    0.236010   4.842164   0.419224  -0.013151   0.001970   0.395746
     3  O   -0.188753   0.419224   8.151899   0.014734   0.011921  -0.023315
     4  H    0.336098  -0.013151   0.014734   0.400290  -0.014473   0.011480
     5  H    0.305391   0.001970   0.011921  -0.014473   0.426772   0.019880
     6  H   -0.223322   0.395746  -0.023315   0.011480   0.019880   0.739042
     7  He  -0.001374   0.002425  -0.016819   0.000145  -0.000104   0.001638
               7
     1  N   -0.001374
     2  C    0.002425
     3  O   -0.016819
     4  H    0.000145
     5  H   -0.000104
     6  H    0.001638
     7  He   2.018648
 Mulliken charges:
               1
     1  N   -0.334536
     2  C    0.115612
     3  O   -0.368890
     4  H    0.264878
     5  H    0.248643
     6  H    0.078851
     7  He  -0.004558
 Sum of Mulliken charges =   0.00000
 Mulliken charges with hydrogens summed into heavy atoms:
               1
     1  N    0.178985
     2  C    0.194463
     3  O   -0.368890
     7  He  -0.004558
 Electronic spatial extent (au):  <R**2>=            246.5359
 Charge=              0.0000 electrons
 Dipole moment (field-independent basis, Debye):
    X=             -1.4916    Y=             -0.0020    Z=             -3.7939  Tot=              4.0766
 Quadrupole moment (field-independent basis, Debye-Ang):
   XX=            -15.7631   YY=            -20.3220   ZZ=            -18.0066
   XY=              0.0159   XZ=              0.3167   YZ=             -0.0052
 Traceless Quadrupole moment (field-independent basis, Debye-Ang):
   XX=              2.2675   YY=             -2.2914   ZZ=              0.0239
   XY=              0.0159   XZ=              0.3167   YZ=             -0.0052
 Octapole moment (field-independent basis, Debye-Ang**2):
  XXX=             17.3092  YYY=              0.0072  ZZZ=            -14.3534  XYY=              7.9166
  XXY=             -0.0108  XXZ=             -3.9996  XZZ=              4.4118  YZZ=              0.0117
  YYZ=              1.4988  XYZ=             -0.0177
 Hexadecapole moment (field-independent basis, Debye-Ang**3):
 XXXX=            -77.9677 YYYY=            -20.1885 ZZZZ=           -168.8196 XXXY=             -0.0424
 XXXZ=            -22.9926 YYYX=             -0.0692 YYYZ=              0.0057 ZZZX=            -17.5923
 ZZZY=             -0.0124 XXYY=            -18.0592 XXZZ=            -37.6350 YYZZ=            -36.5301
 XXYZ=              0.0007 YYXZ=             -9.1150 ZZXY=              0.0024
 N-N= 7.856358221130D+01 E-N=-5.626888574268D+02  KE= 1.722103680252D+02
 1|1|UNPC-OXYGEN|Scan|RB3LYP|6-311++G(d,p)|C1H3He1N1O1|RUBIDIUM|06-Jul-
 2014|0||# opt=modredundant b3lyp/6-311++g(d,p) nosymm||B3LYP/6-311++g(
 d,p) for formamide and He 90deg O=C.He||0,1|N,-0.4725421042,0.00100589
 5,-1.2635070005|C,-0.8412659276,-0.0020367728,0.0464762985|O,-0.073017
 9595,-0.0001427713,0.9838567774|H,0.5078428021,0.0049683575,-1.5030844
 846|H,-1.1578002011,-0.0010368603,-2.0008949849|H,-1.9397978599,-0.006
 4909219,0.1748448525|He,1.4989757101,0.0037330738,2.9019724417||Versio
 n=IA32W-G09RevD.01|HF=-172.8668178,-172.8668537,-172.866834,-172.86680
 27,-172.8667932,-172.8668043,-172.8668353,-172.8668859,-172.8669466,-1
 72.86701,-172.8670763,-172.8671469,-172.8672188,-172.8672854,-172.8673
 415,-172.8673837,-172.8674119,-172.8674269,-172.8674321|RMSD=2.030e-00
 9,5.707e-009,3.918e-009,1.347e-009,1.137e-009,5.126e-009,5.980e-009,4.
 406e-009,6.439e-009,4.088e-009,9.670e-009,1.873e-009,3.706e-009,4.230e
 -009,4.022e-009,1.740e-009,5.201e-009,5.367e-009,3.597e-009|PG=C01 [X(
 C1H3He1N1O1)]||@


 ERWIN WITH HIS PSI CAN DO
 CALCULATIONS QUITE A FEW.
 BUT ONE THING HAS NOT BEEN SEEN
 JUST WHAT DOES PSI REALLY MEAN.
 -- WALTER HUCKEL, TRANS. BY FELIX BLOCH
 Job cpu time:       0 days  0 hours 19 minutes  8.0 seconds.
 File lengths (MBytes):  RWF=      6 Int=      0 D2E=      0 Chk=      3 Scr=      1
 Normal termination of Gaussian 09 at Sun Jul 06 10:28:01 2014.
