 Entering Link 1 = C:\G09W\l1.exe PID=     10840.
  
 Copyright (c) 1988,1990,1992,1993,1995,1998,2003,2009,2013,
            Gaussian, Inc.  All Rights Reserved.
  
 This is part of the Gaussian(R) 09 program.  It is based on
 the Gaussian(R) 03 system (copyright 2003, Gaussian, Inc.),
 the Gaussian(R) 98 system (copyright 1998, Gaussian, Inc.),
 the Gaussian(R) 94 system (copyright 1995, Gaussian, Inc.),
 the Gaussian 92(TM) system (copyright 1992, Gaussian, Inc.),
 the Gaussian 90(TM) system (copyright 1990, Gaussian, Inc.),
 the Gaussian 88(TM) system (copyright 1988, Gaussian, Inc.),
 the Gaussian 86(TM) system (copyright 1986, Carnegie Mellon
 University), and the Gaussian 82(TM) system (copyright 1983,
 Carnegie Mellon University). Gaussian is a federally registered
 trademark of Gaussian, Inc.
  
 This software contains proprietary and confidential information,
 including trade secrets, belonging to Gaussian, Inc.
  
 This software is provided under written license and may be
 used, copied, transmitted, or stored only in accord with that
 written license.
  
 The following legend is applicable only to US Government
 contracts under FAR:
  
                    RESTRICTED RIGHTS LEGEND
  
 Use, reproduction and disclosure by the US Government is
 subject to restrictions as set forth in subparagraphs (a)
 and (c) of the Commercial Computer Software - Restricted
 Rights clause in FAR 52.227-19.
  
 Gaussian, Inc.
 340 Quinnipiac St., Bldg. 40, Wallingford CT 06492
  
  
 ---------------------------------------------------------------
 Warning -- This program may not be used in any manner that
 competes with the business of Gaussian, Inc. or will provide
 assistance to any competitor of Gaussian, Inc.  The licensee
 of this program is prohibited from giving any competitor of
 Gaussian, Inc. access to this program.  By using this program,
 the user acknowledges that Gaussian, Inc. is engaged in the
 business of creating and licensing software in the field of
 computational chemistry and represents and warrants to the
 licensee that it is not a competitor of Gaussian, Inc. and that
 it will not use this program in any manner prohibited above.
 ---------------------------------------------------------------
  

 Cite this work as:
 Gaussian 09, Revision D.01,
 M. J. Frisch, G. W. Trucks, H. B. Schlegel, G. E. Scuseria, 
 M. A. Robb, J. R. Cheeseman, G. Scalmani, V. Barone, B. Mennucci, 
 G. A. Petersson, H. Nakatsuji, M. Caricato, X. Li, H. P. Hratchian, 
 A. F. Izmaylov, J. Bloino, G. Zheng, J. L. Sonnenberg, M. Hada, 
 M. Ehara, K. Toyota, R. Fukuda, J. Hasegawa, M. Ishida, T. Nakajima, 
 Y. Honda, O. Kitao, H. Nakai, T. Vreven, J. A. Montgomery, Jr., 
 J. E. Peralta, F. Ogliaro, M. Bearpark, J. J. Heyd, E. Brothers, 
 K. N. Kudin, V. N. Staroverov, T. Keith, R. Kobayashi, J. Normand, 
 K. Raghavachari, A. Rendell, J. C. Burant, S. S. Iyengar, J. Tomasi, 
 M. Cossi, N. Rega, J. M. Millam, M. Klene, J. E. Knox, J. B. Cross, 
 V. Bakken, C. Adamo, J. Jaramillo, R. Gomperts, R. E. Stratmann, 
 O. Yazyev, A. J. Austin, R. Cammi, C. Pomelli, J. W. Ochterski, 
 R. L. Martin, K. Morokuma, V. G. Zakrzewski, G. A. Voth, 
 P. Salvador, J. J. Dannenberg, S. Dapprich, A. D. Daniels, 
 O. Farkas, J. B. Foresman, J. V. Ortiz, J. Cioslowski, 
 and D. J. Fox, Gaussian, Inc., Wallingford CT, 2013.
 
 ******************************************
 Gaussian 09:  IA32W-G09RevD.01 24-Apr-2013
                05-Jul-2014 
 ******************************************
 %chk=Formamide_rot_recoor.chk
 -------------------------------------------
 # opt=modredundant rhf/6-311++G(d,p) nosymm
 -------------------------------------------
 1/18=120,19=15,38=1/1,3;
 2/9=110,12=2,15=1,17=6,18=5,40=1/2;
 3/5=4,6=6,7=1111,11=1,16=1,25=1,30=1,71=1,116=1/1,2,3;
 4//1;
 5/5=2,38=5/2;
 6/7=2,8=2,9=2,10=2,28=1/1;
 7/30=1/1,2,3,16;
 1/18=20,19=15/3(2);
 2/9=110,15=1/2;
 99//99;
 2/9=110,15=1/2;
 3/5=4,6=6,7=1111,11=1,16=1,25=1,30=1,71=1,116=1/1,2,3;
 4/5=5,16=3,69=1/1;
 5/5=2,38=5/2;
 7/30=1/1,2,3,16;
 1/18=20,19=15/3(-5);
 2/9=110,15=1/2;
 6/7=2,8=2,9=2,10=2,19=2,28=1/1;
 99/9=1/99;
 -----------------------------------------------
 RHF/6-311++G(d,p)(MeHNCHO) Me rot 7123=0 to 180
 -----------------------------------------------
 Symbolic Z-matrix:
 Charge =  0 Multiplicity = 1
 N                     0.        0.       -1.361 
 C                     0.        0.        0. 
 O                     0.994     0.        0.6934 
 H                    -0.8591    0.       -1.8864 
 H                    -1.0232    0.        0.4226 
 C                     1.28046   0.       -2.08303 
 H                     2.08664   0.       -1.37949 
 H                     1.34338  -0.87365  -2.69758 
 H                     1.34338   0.87365  -2.69758 
 
 The following ModRedundant input section has been read:
 B       6       7 1.0900 B                                                    
 B       6       9 1.0900 B                                                    
 B       6       8 1.0900 B                                                    
 B       1       6 1.4900 B                                                    
 X    *    F                                                                   
 D    *          1       6    *    R                                           
 D       2       1       6       7 S  12 5.0000                                
 
 Iteration  1 RMS(Cart)=  0.01858184 RMS(Int)=  0.00000722
 Iteration  2 RMS(Cart)=  0.00001854 RMS(Int)=  0.00000000
 Iteration  3 RMS(Cart)=  0.00000000 RMS(Int)=  0.00000000
 Iteration  1 RMS(Cart)=  0.00000000 RMS(Int)=  0.00000000

 GradGradGradGradGradGradGradGradGradGradGradGradGradGradGradGradGradGrad
 Berny optimization.
 Initialization pass.
                           ----------------------------
                           !    Initial Parameters    !
                           ! (Angstroms and Degrees)  !
 --------------------------                            --------------------------
 ! Name  Definition              Value          Derivative Info.                !
 --------------------------------------------------------------------------------
 ! R1    R(1,2)                  1.361          estimate D2E/DX2                !
 ! R2    R(1,4)                  1.007          estimate D2E/DX2                !
 ! R3    R(1,6)                  1.49           estimate D2E/DX2                !
 ! R4    R(2,3)                  1.212          estimate D2E/DX2                !
 ! R5    R(2,5)                  1.107          estimate D2E/DX2                !
 ! R6    R(6,7)                  1.09           estimate D2E/DX2                !
 ! R7    R(6,8)                  1.09           estimate D2E/DX2                !
 ! R8    R(6,9)                  1.09           estimate D2E/DX2                !
 ! A1    A(2,1,4)              121.4487         estimate D2E/DX2                !
 ! A2    A(2,1,6)              119.4181         estimate D2E/DX2                !
 ! A3    A(4,1,6)              119.1332         estimate D2E/DX2                !
 ! A4    A(1,2,3)              124.8991         estimate D2E/DX2                !
 ! A5    A(1,2,5)              112.4415         estimate D2E/DX2                !
 ! A6    A(3,2,5)              122.6594         estimate D2E/DX2                !
 ! A7    A(1,6,7)              109.4712         estimate D2E/DX2                !
 ! A8    A(1,6,8)              109.4712         estimate D2E/DX2                !
 ! A9    A(1,6,9)              109.4712         estimate D2E/DX2                !
 ! A10   A(7,6,8)              109.4713         estimate D2E/DX2                !
 ! A11   A(7,6,9)              109.4712         estimate D2E/DX2                !
 ! A12   A(8,6,9)              109.4712         estimate D2E/DX2                !
 ! D1    D(4,1,2,3)            180.0            estimate D2E/DX2                !
 ! D2    D(4,1,2,5)              0.0            estimate D2E/DX2                !
 ! D3    D(6,1,2,3)              0.0            estimate D2E/DX2                !
 ! D4    D(6,1,2,5)            180.0            estimate D2E/DX2                !
 ! D5    D(2,1,6,7)              0.0            Scan                            !
 --------------------------------------------------------------------------------
 Trust Radius=3.00D-01 FncErr=1.00D-07 GrdErr=1.00D-07
 Number of optimizations in scan=  13
 Number of steps in this run=     35 maximum allowed number of steps=    100.
 GradGradGradGradGradGradGradGradGradGradGradGradGradGradGradGradGradGrad

                          Input orientation:                          
 ---------------------------------------------------------------------
 Center     Atomic      Atomic             Coordinates (Angstroms)
 Number     Number       Type             X           Y           Z
 ---------------------------------------------------------------------
      1          7           0       -0.009914    0.000000   -1.354518
      2          6           0       -0.007526    0.000000    0.006479
      3          8           0        0.987689    0.000000    0.698135
      4          1           0       -0.869934    0.000000   -1.878411
      5          1           0       -1.029983    0.000000    0.430874
      6          6           0        1.286678    0.000000   -2.088650
      7          1           0        2.109184    0.000000   -1.373399
      8          1           0        1.349682   -0.889981   -2.714800
      9          1           0        1.349682    0.889981   -2.714800
 ---------------------------------------------------------------------
                    Distance matrix (angstroms):
                    1          2          3          4          5
     1  N    0.000000
     2  C    1.361000   0.000000
     3  O    2.282235   1.211957   0.000000
     4  H    1.007024   2.072814   3.176373   0.000000
     5  H    2.056251   1.107036   2.035296   2.314824   0.000000
     6  C    1.490000   2.462627   2.802778   2.166836   3.422707
     7  H    2.119182   2.526762   2.355632   3.021619   3.620742
     8  H    2.119182   3.168508   3.545593   2.533438   4.043530
     9  H    2.119182   3.168508   3.545593   2.533438   4.043530
                    6          7          8          9
     6  C    0.000000
     7  H    1.090000   0.000000
     8  H    1.090000   1.779963   0.000000
     9  H    1.090000   1.779963   1.779963   0.000000
 Symmetry turned off by external request.
 Stoichiometry    C2H5NO
 Framework group  CS[SG(C2H3NO),X(H2)]
 Deg. of freedom    14
 Full point group                 CS      NOp   2
 Rotational constants (GHZ):     18.9012850      6.3074613      4.8749407
 Standard basis: 6-311++G(d,p) (5D, 7F)
   123 basis functions,   189 primitive gaussians,   127 cartesian basis functions
    16 alpha electrons       16 beta electrons
       nuclear repulsion energy       121.2230371693 Hartrees.
 NAtoms=    9 NActive=    9 NUniq=    9 SFac= 1.00D+00 NAtFMM=   60 NAOKFM=F Big=F
 Integral buffers will be    262144 words long.
 Raffenetti 1 integral format.
 Two-electron integral symmetry is turned off.
 One-electron integrals computed using PRISM.
 NBasis=   123 RedAO= T EigKep=  4.54D-04  NBF=   123
 NBsUse=   123 1.00D-06 EigRej= -1.00D+00 NBFU=   123
 ExpMin= 3.60D-02 ExpMax= 8.59D+03 ExpMxC= 1.30D+03 IAcc=3 IRadAn=         5 AccDes= 0.00D+00
 Harris functional with IExCor=  205 and IRadAn=       5 diagonalized for initial guess.
 HarFok:  IExCor=  205 AccDes= 0.00D+00 IRadAn=         5 IDoV= 1 UseB2=F ITyADJ=14
 ICtDFT=  3500011 ScaDFX=  1.000000  1.000000  1.000000  1.000000
 FoFCou: FMM=F IPFlag=           0 FMFlag=      100000 FMFlg1=           0
         NFxFlg=           0 DoJE=T BraDBF=F KetDBF=T FulRan=T
         wScrn=  0.000000 ICntrl=     500 IOpCl=  0 I1Cent=   200000004 NGrid=           0
         NMat0=    1 NMatS0=      1 NMatT0=    0 NMatD0=    1 NMtDS0=    0 NMtDT0=    0
 Symmetry not used in FoFCou.
 Keep R1 ints in memory in canonical form, NReq=30190431.
 Requested convergence on RMS density matrix=1.00D-08 within 128 cycles.
 Requested convergence on MAX density matrix=1.00D-06.
 Requested convergence on             energy=1.00D-06.
 No special actions if energy rises.
 SCF Done:  E(RHF) =  -208.021206758     A.U. after   13 cycles
            NFock= 13  Conv=0.67D-08     -V/T= 2.0016

 **********************************************************************

            Population analysis using the SCF density.

 **********************************************************************

 Alpha  occ. eigenvalues --  -20.52495 -15.59498 -11.35384 -11.26712  -1.38717
 Alpha  occ. eigenvalues --   -1.22820  -0.96265  -0.81250  -0.74329  -0.64149
 Alpha  occ. eigenvalues --   -0.62304  -0.58757  -0.55677  -0.53971  -0.43203
 Alpha  occ. eigenvalues --   -0.39761
 Alpha virt. eigenvalues --    0.03261   0.05072   0.06758   0.06775   0.09551
 Alpha virt. eigenvalues --    0.11558   0.11602   0.12707   0.16146   0.16943
 Alpha virt. eigenvalues --    0.17084   0.18304   0.19432   0.20178   0.23770
 Alpha virt. eigenvalues --    0.23971   0.26628   0.30346   0.30425   0.31386
 Alpha virt. eigenvalues --    0.34152   0.35279   0.36798   0.37590   0.40099
 Alpha virt. eigenvalues --    0.41329   0.43488   0.48082   0.53270   0.57782
 Alpha virt. eigenvalues --    0.62327   0.64057   0.67938   0.74415   0.74901
 Alpha virt. eigenvalues --    0.81826   0.82609   0.83856   0.87394   0.91579
 Alpha virt. eigenvalues --    0.92082   1.02791   1.06217   1.07897   1.10526
 Alpha virt. eigenvalues --    1.21492   1.26161   1.32805   1.38024   1.40108
 Alpha virt. eigenvalues --    1.40876   1.42479   1.53649   1.54627   1.70468
 Alpha virt. eigenvalues --    1.75411   1.75938   1.80320   1.80665   1.84741
 Alpha virt. eigenvalues --    1.90988   1.92464   2.00774   2.01471   2.03061
 Alpha virt. eigenvalues --    2.07603   2.18326   2.23659   2.31169   2.34616
 Alpha virt. eigenvalues --    2.46745   2.57584   2.69183   2.75809   2.77563
 Alpha virt. eigenvalues --    2.78009   2.82298   2.82499   2.88726   2.90712
 Alpha virt. eigenvalues --    2.96094   2.99839   3.13849   3.16978   3.19980
 Alpha virt. eigenvalues --    3.28322   3.30829   3.31004   3.52067   3.77611
 Alpha virt. eigenvalues --    3.80042   3.93668   3.97838   4.07910   4.14188
 Alpha virt. eigenvalues --    4.21902   4.37418   4.38466   5.27991   5.40874
 Alpha virt. eigenvalues --    5.60686   5.74864   6.32995  25.03831  25.08574
 Alpha virt. eigenvalues --   36.98884  51.70662
          Condensed to atoms (all electrons):
               1          2          3          4          5          6
     1  N    7.152748   0.186436  -0.143991   0.368618  -0.175434   0.120545
     2  C    0.186436   4.744205   0.436112  -0.016859   0.427353  -0.060016
     3  O   -0.143991   0.436112   8.203537   0.004710  -0.020111  -0.015842
     4  H    0.368618  -0.016859   0.004710   0.364984   0.001049  -0.023486
     5  H   -0.175434   0.427353  -0.020111   0.001049   0.649969   0.010100
     6  C    0.120545  -0.060016  -0.015842  -0.023486   0.010100   5.051291
     7  H   -0.059866   0.015846   0.015886  -0.002873   0.004308   0.416013
     8  H   -0.054645  -0.004088  -0.002249   0.003400  -0.001770   0.416116
     9  H   -0.054645  -0.004088  -0.002249   0.003400  -0.001770   0.416116
               7          8          9
     1  N   -0.059866  -0.054645  -0.054645
     2  C    0.015846  -0.004088  -0.004088
     3  O    0.015886  -0.002249  -0.002249
     4  H   -0.002873   0.003400   0.003400
     5  H    0.004308  -0.001770  -0.001770
     6  C    0.416013   0.416116   0.416116
     7  H    0.466460  -0.023997  -0.023997
     8  H   -0.023997   0.592313  -0.062942
     9  H   -0.023997  -0.062942   0.592313
 Mulliken charges:
               1
     1  N   -0.339766
     2  C    0.275099
     3  O   -0.475803
     4  H    0.297057
     5  H    0.106306
     6  C   -0.330838
     7  H    0.192220
     8  H    0.137862
     9  H    0.137862
 Sum of Mulliken charges =   0.00000
 Mulliken charges with hydrogens summed into heavy atoms:
               1
     1  N   -0.042708
     2  C    0.381404
     3  O   -0.475803
     6  C    0.137107
 Electronic spatial extent (au):  <R**2>=            383.0586
 Charge=              0.0000 electrons
 Dipole moment (field-independent basis, Debye):
    X=             -2.4308    Y=              0.0000    Z=             -3.4410  Tot=              4.2130
 Quadrupole moment (field-independent basis, Debye-Ang):
   XX=            -23.9536   YY=            -25.2206   ZZ=            -21.8043
   XY=              0.0000   XZ=             -2.6870   YZ=              0.0000
 Traceless Quadrupole moment (field-independent basis, Debye-Ang):
   XX=             -0.2941   YY=             -1.5611   ZZ=              1.8552
   XY=              0.0000   XZ=             -2.6870   YZ=              0.0000
 Octapole moment (field-independent basis, Debye-Ang**2):
  XXX=            -44.2754  YYY=              0.0000  ZZZ=             46.5495  XYY=            -13.9943
  XXY=              0.0000  XXZ=             12.9885  XZZ=            -15.9826  YZZ=              0.0000
  YYZ=             19.8287  XYZ=              0.0000
 Hexadecapole moment (field-independent basis, Debye-Ang**3):
 XXXX=           -144.4851 YYYY=            -31.1633 ZZZZ=           -298.7293 XXXY=              0.0000
 XXXZ=             45.9834 YYYX=              0.0000 YYYZ=              0.0000 ZZZX=             48.2608
 ZZZY=              0.0000 XXYY=            -30.8613 XXZZ=            -70.9792 YYZZ=            -56.9194
 XXYZ=              0.0000 YYXZ=             14.8005 ZZXY=              0.0000
 N-N= 1.212230371693D+02 E-N=-7.308770607991D+02  KE= 2.076944401139D+02
 Calling FoFJK, ICntrl=      2127 FMM=F ISym2X=0 I1Cent= 0 IOpClX= 0 NMat=1 NMatS=1 NMatT=0.
 -------------------------------------------------------------------
 Center     Atomic                   Forces (Hartrees/Bohr)
 Number     Number              X              Y              Z
 -------------------------------------------------------------------
      1        7           0.023856100    0.000000028    0.003095148
      2        6           0.011663263    0.000000004    0.004432475
      3        8          -0.032528853    0.000000001   -0.018883532
      4        1           0.010544841    0.000000001    0.011247023
      5        1           0.010829924   -0.000000003   -0.001923859
      6        6          -0.016862977   -0.000000006    0.002034043
      7        1          -0.009345188   -0.000000035   -0.004126276
      8        1           0.000921483    0.003841568    0.002062492
      9        1           0.000921406   -0.003841559    0.002062486
 -------------------------------------------------------------------
 Cartesian Forces:  Max     0.032528853 RMS     0.010435589

 GradGradGradGradGradGradGradGradGradGradGradGradGradGradGradGradGradGrad
 Berny optimization.
 FormGI is forming the generalized inverse of G from B-inverse, IUseBI=4.
 Internal  Forces:  Max     0.037488207 RMS     0.011177886
 Search for a local minimum.
 Step number   1 out of a maximum of   35 on scan point     1 out of    13
 All quantities printed in internal units (Hartrees-Bohrs-Radians)
 Mixed Optimization -- RFO/linear search
 Second derivative matrix not updated -- first step.
 ITU=  0
     Eigenvalues ---    0.02208   0.02208   0.02208   0.16000   0.16000
     Eigenvalues ---    0.16000   0.16000   0.16000   0.16000   0.16000
     Eigenvalues ---    0.22000   0.22000   0.32916   0.33450   0.34813
     Eigenvalues ---    0.34813   0.34813   0.46474   0.52746   0.99038
     Eigenvalues --- 1000.000001000.000001000.000001000.000001000.00000
 RFO step:  Lambda=-6.84556051D-03 EMin= 2.20767554D-02
 Linear search not attempted -- first point.
 Iteration  1 RMS(Cart)=  0.04363870 RMS(Int)=  0.00081643
 Iteration  2 RMS(Cart)=  0.00152216 RMS(Int)=  0.00002905
 Iteration  3 RMS(Cart)=  0.00000059 RMS(Int)=  0.00002904
 Iteration  1 RMS(Cart)=  0.00000001 RMS(Int)=  0.00000000
 Variable       Old X    -DE/DX   Delta X   Delta X   Delta X     New X
                                 (Linear)    (Quad)   (Total)
    R1        2.57192  -0.01639   0.00000  -0.03068  -0.03068   2.54124
    R2        1.90300  -0.01486   0.00000  -0.03150  -0.03150   1.87150
    R3        2.81569  -0.02220   0.00000  -0.06505  -0.06505   2.75064
    R4        2.29027  -0.03749   0.00000  -0.03759  -0.03759   2.25267
    R5        2.09200  -0.01074   0.00000  -0.03196  -0.03196   2.06003
    R6        2.05980  -0.00976   0.00000  -0.02749  -0.02749   2.03231
    R7        2.05980  -0.00427   0.00000  -0.01202  -0.01202   2.04778
    R8        2.05980  -0.00427   0.00000  -0.01202  -0.01202   2.04778
    A1        2.11968  -0.01187   0.00000  -0.05854  -0.05854   2.06114
    A2        2.08424   0.01590   0.00000   0.07010   0.07010   2.15434
    A3        2.07927  -0.00403   0.00000  -0.01156  -0.01156   2.06771
    A4        2.17990   0.00301   0.00000   0.01328   0.01328   2.19318
    A5        1.96247   0.00098   0.00000   0.00825   0.00825   1.97072
    A6        2.14081  -0.00399   0.00000  -0.02153  -0.02153   2.11928
    A7        1.91063  -0.00608   0.00000  -0.03646  -0.03651   1.87412
    A8        1.91063   0.00281   0.00000   0.01682   0.01676   1.92740
    A9        1.91063   0.00281   0.00000   0.01682   0.01676   1.92740
   A10        1.91063   0.00014   0.00000   0.00081   0.00075   1.91138
   A11        1.91063   0.00014   0.00000   0.00081   0.00075   1.91138
   A12        1.91063   0.00020   0.00000   0.00119   0.00113   1.91176
    D1        3.14159   0.00000   0.00000   0.00000   0.00000   3.14159
    D2        0.00000   0.00000   0.00000   0.00000   0.00000   0.00000
    D3        0.00000   0.00000   0.00000   0.00000   0.00000   0.00000
    D4        3.14159   0.00000   0.00000   0.00000   0.00000  -3.14159
    D5        0.00000   0.00000   0.00000   0.00000   0.00000   0.00000
         Item               Value     Threshold  Converged?
 Maximum Force            0.037488     0.000450     NO 
 RMS     Force            0.011408     0.000300     NO 
 Maximum Displacement     0.091174     0.001800     NO 
 RMS     Displacement     0.043237     0.001200     NO 
 Predicted change in Energy=-3.493716D-03
 GradGradGradGradGradGradGradGradGradGradGradGradGradGradGradGradGradGrad

                          Input orientation:                          
 ---------------------------------------------------------------------
 Center     Atomic      Atomic             Coordinates (Angstroms)
 Number     Number       Type             X           Y           Z
 ---------------------------------------------------------------------
      1          7           0        0.036753    0.000000   -1.339354
      2          6           0       -0.005872    0.000000    0.004735
      3          8           0        0.940156    0.000000    0.730026
      4          1           0       -0.821687    0.000000   -1.833197
      5          1           0       -1.022920    0.000000    0.397136
      6          6           0        1.276269    0.000000   -2.102443
      7          1           0        2.087884    0.000000   -1.396841
      8          1           0        1.337488   -0.885139   -2.724577
      9          1           0        1.337488    0.885139   -2.724577
 ---------------------------------------------------------------------
                    Distance matrix (angstroms):
                    1          2          3          4          5
     1  N    0.000000
     2  C    1.344765   0.000000
     3  O    2.257980   1.192064   0.000000
     4  H    0.990353   2.010858   3.110339   0.000000
     5  H    2.034282   1.090122   1.991101   2.239393   0.000000
     6  C    1.455577   2.466594   2.852342   2.115162   3.396198
     7  H    2.051937   2.519570   2.416784   2.942110   3.591025
     8  H    2.096241   3.168159   3.588263   2.498012   4.012492
     9  H    2.096241   3.168159   3.588262   2.498012   4.012492
                    6          7          8          9
     6  C    0.000000
     7  H    1.075451   0.000000
     8  H    1.083637   1.763363   0.000000
     9  H    1.083637   1.763363   1.770279   0.000000
 Symmetry turned off by external request.
 Stoichiometry    C2H5NO
 Framework group  C1[X(C2H5NO)]
 Deg. of freedom    21
 Full point group                 C1      NOp   1
 Rotational constants (GHZ):     20.5192583      6.1683545      4.8875160
 Standard basis: 6-311++G(d,p) (5D, 7F)
   123 basis functions,   189 primitive gaussians,   127 cartesian basis functions
    16 alpha electrons       16 beta electrons
       nuclear repulsion energy       122.5107422755 Hartrees.
 NAtoms=    9 NActive=    9 NUniq=    9 SFac= 1.00D+00 NAtFMM=   60 NAOKFM=F Big=F
 Integral buffers will be    262144 words long.
 Raffenetti 1 integral format.
 Two-electron integral symmetry is turned off.
 One-electron integrals computed using PRISM.
 NBasis=   123 RedAO= T EigKep=  4.42D-04  NBF=   123
 NBsUse=   123 1.00D-06 EigRej= -1.00D+00 NBFU=   123
 Initial guess from the checkpoint file:  "Formamide_rot_recoor.chk"
 B after Tr=    -0.019252    0.000000    0.003741
         Rot=    0.999989    0.000000    0.004673    0.000000 Ang=   0.54 deg.
 ExpMin= 3.60D-02 ExpMax= 8.59D+03 ExpMxC= 1.30D+03 IAcc=3 IRadAn=         5 AccDes= 0.00D+00
 Harris functional with IExCor=  205 and IRadAn=       5 diagonalized for initial guess.
 HarFok:  IExCor=  205 AccDes= 0.00D+00 IRadAn=         5 IDoV= 1 UseB2=F ITyADJ=14
 ICtDFT=  3500011 ScaDFX=  1.000000  1.000000  1.000000  1.000000
 FoFCou: FMM=F IPFlag=           0 FMFlag=      100000 FMFlg1=           0
         NFxFlg=           0 DoJE=T BraDBF=F KetDBF=T FulRan=T
         wScrn=  0.000000 ICntrl=     500 IOpCl=  0 I1Cent=   200000004 NGrid=           0
         NMat0=    1 NMatS0=      1 NMatT0=    0 NMatD0=    1 NMtDS0=    0 NMtDT0=    0
 Symmetry not used in FoFCou.
 Keep R1 ints in memory in canonical form, NReq=30190431.
 Requested convergence on RMS density matrix=1.00D-08 within 128 cycles.
 Requested convergence on MAX density matrix=1.00D-06.
 Requested convergence on             energy=1.00D-06.
 No special actions if energy rises.
 SCF Done:  E(RHF) =  -208.024644897     A.U. after   11 cycles
            NFock= 11  Conv=0.93D-08     -V/T= 2.0002
 Calling FoFJK, ICntrl=      2127 FMM=F ISym2X=0 I1Cent= 0 IOpClX= 0 NMat=1 NMatS=1 NMatT=0.
 -------------------------------------------------------------------
 Center     Atomic                   Forces (Hartrees/Bohr)
 Number     Number              X              Y              Z
 -------------------------------------------------------------------
      1        7           0.004563477   -0.000000008   -0.003599686
      2        6           0.001451421   -0.000000011    0.001188768
      3        8           0.000566313    0.000000003    0.000513047
      4        1          -0.002859738    0.000000000    0.000105023
      5        1          -0.002050830    0.000000005   -0.000551390
      6        6          -0.006839783    0.000000028    0.003645018
      7        1           0.003463733   -0.000000007   -0.000135100
      8        1           0.000852701   -0.000137678   -0.000582837
      9        1           0.000852706    0.000137668   -0.000582844
 -------------------------------------------------------------------
 Cartesian Forces:  Max     0.006839783 RMS     0.002150296

 GradGradGradGradGradGradGradGradGradGradGradGradGradGradGradGradGradGrad
 Berny optimization.
 Using GEDIIS/GDIIS optimizer.
 FormGI is forming the generalized inverse of G from B-inverse, IUseBI=4.
 Internal  Forces:  Max     0.003403429 RMS     0.001449911
 Search for a local minimum.
 Step number   2 out of a maximum of   35 on scan point     1 out of    13
 All quantities printed in internal units (Hartrees-Bohrs-Radians)
 Mixed Optimization -- RFO/linear search
 Update second derivatives using D2CorX and points    1    2
 DE= -3.44D-03 DEPred=-3.49D-03 R= 9.84D-01
 TightC=F SS=  1.41D+00  RLast= 1.44D-01 DXNew= 5.0454D-01 4.3188D-01
 Trust test= 9.84D-01 RLast= 1.44D-01 DXMaxT set to 4.32D-01
 ITU=  1  0
 Use linear search instead of GDIIS.
     Eigenvalues ---    0.02208   0.02208   0.02208   0.15363   0.16000
     Eigenvalues ---    0.16000   0.16000   0.16000   0.16000   0.16694
     Eigenvalues ---    0.21535   0.22149   0.32036   0.33272   0.34806
     Eigenvalues ---    0.34813   0.35936   0.47608   0.53545   0.99728
     Eigenvalues --- 1000.000001000.000001000.000001000.000001000.00000
 RFO step:  Lambda=-2.29495109D-04 EMin= 2.20767554D-02
 Quartic linear search produced a step of -0.01087.
 Iteration  1 RMS(Cart)=  0.01152699 RMS(Int)=  0.00011413
 Iteration  2 RMS(Cart)=  0.00010655 RMS(Int)=  0.00002178
 Iteration  3 RMS(Cart)=  0.00000001 RMS(Int)=  0.00002178
 Iteration  1 RMS(Cart)=  0.00000001 RMS(Int)=  0.00000000
 Variable       Old X    -DE/DX   Delta X   Delta X   Delta X     New X
                                 (Linear)    (Quad)   (Total)
    R1        2.54124   0.00115   0.00033   0.00078   0.00112   2.54236
    R2        1.87150   0.00243   0.00034   0.00375   0.00409   1.87559
    R3        2.75064  -0.00265   0.00071  -0.01076  -0.01006   2.74059
    R4        2.25267   0.00076   0.00041  -0.00091  -0.00051   2.25217
    R5        2.06003   0.00171   0.00035   0.00371   0.00406   2.06409
    R6        2.03231   0.00253   0.00030   0.00593   0.00623   2.03854
    R7        2.04778   0.00050   0.00013   0.00087   0.00100   2.04877
    R8        2.04778   0.00050   0.00013   0.00087   0.00100   2.04877
    A1        2.06114  -0.00185   0.00064  -0.01336  -0.01273   2.04841
    A2        2.15434   0.00086  -0.00076   0.00705   0.00629   2.16063
    A3        2.06771   0.00099   0.00013   0.00631   0.00644   2.07415
    A4        2.19318   0.00095  -0.00014   0.00489   0.00474   2.19792
    A5        1.97072  -0.00177  -0.00009  -0.00973  -0.00982   1.96091
    A6        2.11928   0.00081   0.00023   0.00484   0.00507   2.12436
    A7        1.87412   0.00340   0.00040   0.01934   0.01969   1.89381
    A8        1.92740   0.00046  -0.00018   0.00358   0.00336   1.93075
    A9        1.92740   0.00046  -0.00018   0.00358   0.00336   1.93075
   A10        1.91138  -0.00143  -0.00001  -0.00877  -0.00882   1.90257
   A11        1.91138  -0.00143  -0.00001  -0.00877  -0.00882   1.90257
   A12        1.91176  -0.00142  -0.00001  -0.00873  -0.00878   1.90298
    D1        3.14159   0.00000   0.00000   0.00000   0.00000  -3.14159
    D2        0.00000   0.00000   0.00000   0.00000   0.00000   0.00000
    D3        0.00000   0.00000   0.00000   0.00000   0.00000   0.00000
    D4       -3.14159   0.00000   0.00000   0.00000   0.00000   3.14159
    D5        0.00000   0.00000   0.00000   0.00000   0.00000   0.00000
         Item               Value     Threshold  Converged?
 Maximum Force            0.003403     0.000450     NO 
 RMS     Force            0.001480     0.000300     NO 
 Maximum Displacement     0.030736     0.001800     NO 
 RMS     Displacement     0.011567     0.001200     NO 
 Predicted change in Energy=-1.152030D-04
 GradGradGradGradGradGradGradGradGradGradGradGradGradGradGradGradGradGrad

                          Input orientation:                          
 ---------------------------------------------------------------------
 Center     Atomic      Atomic             Coordinates (Angstroms)
 Number     Number       Type             X           Y           Z
 ---------------------------------------------------------------------
      1          7           0        0.041477    0.000000   -1.336694
      2          6           0       -0.005999    0.000000    0.007824
      3          8           0        0.933738    0.000000    0.740813
      4          1           0       -0.823325    0.000000   -1.823738
      5          1           0       -1.030231    0.000000    0.387297
      6          6           0        1.274406    0.000000   -2.100322
      7          1           0        2.104149    0.000000   -1.410955
      8          1           0        1.335672   -0.882815   -2.726658
      9          1           0        1.335672    0.882815   -2.726658
 ---------------------------------------------------------------------
                    Distance matrix (angstroms):
                    1          2          3          4          5
     1  N    0.000000
     2  C    1.345356   0.000000
     3  O    2.261010   1.191796   0.000000
     4  H    0.992519   2.005653   3.108729   0.000000
     5  H    2.029951   1.092269   1.995533   2.220695   0.000000
     6  C    1.450256   2.466519   2.861486   2.115886   3.391106
     7  H    2.064008   2.542766   2.449483   2.956432   3.613592
     8  H    2.094350   3.171251   3.600593   2.501178   4.009186
     9  H    2.094350   3.171251   3.600593   2.501178   4.009186
                    6          7          8          9
     6  C    0.000000
     7  H    1.078749   0.000000
     8  H    1.084164   1.760964   0.000000
     9  H    1.084164   1.760964   1.765630   0.000000
 Symmetry turned off by external request.
 Stoichiometry    C2H5NO
 Framework group  C1[X(C2H5NO)]
 Deg. of freedom    21
 Full point group                 C1      NOp   1
 Rotational constants (GHZ):     20.6388424      6.1354987      4.8727847
 Standard basis: 6-311++G(d,p) (5D, 7F)
   123 basis functions,   189 primitive gaussians,   127 cartesian basis functions
    16 alpha electrons       16 beta electrons
       nuclear repulsion energy       122.4467693879 Hartrees.
 NAtoms=    9 NActive=    9 NUniq=    9 SFac= 1.00D+00 NAtFMM=   60 NAOKFM=F Big=F
 Integral buffers will be    262144 words long.
 Raffenetti 1 integral format.
 Two-electron integral symmetry is turned off.
 One-electron integrals computed using PRISM.
 NBasis=   123 RedAO= T EigKep=  4.40D-04  NBF=   123
 NBsUse=   123 1.00D-06 EigRej= -1.00D+00 NBFU=   123
 Initial guess from the checkpoint file:  "Formamide_rot_recoor.chk"
 B after Tr=    -0.003666    0.000000    0.005362
         Rot=    1.000000    0.000000    0.000729    0.000000 Ang=  -0.08 deg.
 ExpMin= 3.60D-02 ExpMax= 8.59D+03 ExpMxC= 1.30D+03 IAcc=3 IRadAn=         5 AccDes= 0.00D+00
 Harris functional with IExCor=  205 and IRadAn=       5 diagonalized for initial guess.
 HarFok:  IExCor=  205 AccDes= 0.00D+00 IRadAn=         5 IDoV= 1 UseB2=F ITyADJ=14
 ICtDFT=  3500011 ScaDFX=  1.000000  1.000000  1.000000  1.000000
 FoFCou: FMM=F IPFlag=           0 FMFlag=      100000 FMFlg1=           0
         NFxFlg=           0 DoJE=T BraDBF=F KetDBF=T FulRan=T
         wScrn=  0.000000 ICntrl=     500 IOpCl=  0 I1Cent=   200000004 NGrid=           0
         NMat0=    1 NMatS0=      1 NMatT0=    0 NMatD0=    1 NMtDS0=    0 NMtDT0=    0
 Symmetry not used in FoFCou.
 Keep R1 ints in memory in canonical form, NReq=30190431.
 Requested convergence on RMS density matrix=1.00D-08 within 128 cycles.
 Requested convergence on MAX density matrix=1.00D-06.
 Requested convergence on             energy=1.00D-06.
 No special actions if energy rises.
 SCF Done:  E(RHF) =  -208.024764730     A.U. after   10 cycles
            NFock= 10  Conv=0.67D-08     -V/T= 2.0002
 Calling FoFJK, ICntrl=      2127 FMM=F ISym2X=0 I1Cent= 0 IOpClX= 0 NMat=1 NMatS=1 NMatT=0.
 -------------------------------------------------------------------
 Center     Atomic                   Forces (Hartrees/Bohr)
 Number     Number              X              Y              Z
 -------------------------------------------------------------------
      1        7           0.001073830   -0.000000006   -0.000997462
      2        6           0.000122499    0.000000041    0.001108577
      3        8           0.000231271   -0.000000016   -0.000082671
      4        1          -0.000181984   -0.000000002   -0.000135234
      5        1          -0.000448777   -0.000000014    0.000042680
      6        6          -0.001568261   -0.000000004    0.000381379
      7        1           0.000055930    0.000000001    0.000201177
      8        1           0.000357748   -0.000339323   -0.000259225
      9        1           0.000357744    0.000339321   -0.000259219
 -------------------------------------------------------------------
 Cartesian Forces:  Max     0.001568261 RMS     0.000508304

 GradGradGradGradGradGradGradGradGradGradGradGradGradGradGradGradGradGrad
 Berny optimization.
 Using GEDIIS/GDIIS optimizer.
 FormGI is forming the generalized inverse of G from B-inverse, IUseBI=4.
 Internal  Forces:  Max     0.001071272 RMS     0.000369191
 Search for a local minimum.
 Step number   3 out of a maximum of   35 on scan point     1 out of    13
 All quantities printed in internal units (Hartrees-Bohrs-Radians)
 Mixed Optimization -- En-DIIS/RFO-DIIS
 Update second derivatives using D2CorX and points    1    2    3
 DE= -1.20D-04 DEPred=-1.15D-04 R= 1.04D+00
 TightC=F SS=  1.41D+00  RLast= 3.47D-02 DXNew= 7.2634D-01 1.0423D-01
 Trust test= 1.04D+00 RLast= 3.47D-02 DXMaxT set to 4.32D-01
 ITU=  1  1  0
 Use linear search instead of GDIIS.
     Eigenvalues ---    0.02208   0.02208   0.02208   0.13366   0.16000
     Eigenvalues ---    0.16000   0.16000   0.16000   0.16084   0.19009
     Eigenvalues ---    0.21689   0.22517   0.30278   0.33234   0.34813
     Eigenvalues ---    0.35016   0.35809   0.47492   0.53330   0.99748
     Eigenvalues --- 1000.000001000.000001000.000001000.000001000.00000
 RFO step:  Lambda=-1.27891056D-05 EMin= 2.20767554D-02
 Quartic linear search produced a step of  0.04442.
 Iteration  1 RMS(Cart)=  0.00197207 RMS(Int)=  0.00000607
 Iteration  2 RMS(Cart)=  0.00000593 RMS(Int)=  0.00000259
 Iteration  3 RMS(Cart)=  0.00000001 RMS(Int)=  0.00000259
 Iteration  1 RMS(Cart)=  0.00000001 RMS(Int)=  0.00000000
 Variable       Old X    -DE/DX   Delta X   Delta X   Delta X     New X
                                 (Linear)    (Quad)   (Total)
    R1        2.54236   0.00107   0.00005   0.00204   0.00209   2.54444
    R2        1.87559   0.00022   0.00018   0.00045   0.00063   1.87622
    R3        2.74059  -0.00071  -0.00045  -0.00254  -0.00298   2.73760
    R4        2.25217   0.00013  -0.00002   0.00002  -0.00001   2.25216
    R5        2.06409   0.00044   0.00018   0.00133   0.00151   2.06560
    R6        2.03854   0.00017   0.00028   0.00050   0.00077   2.03931
    R7        2.04877   0.00045   0.00004   0.00131   0.00136   2.05013
    R8        2.04877   0.00045   0.00004   0.00131   0.00136   2.05013
    A1        2.04841   0.00005  -0.00057  -0.00007  -0.00063   2.04778
    A2        2.16063  -0.00004   0.00028   0.00012   0.00040   2.16102
    A3        2.07415  -0.00001   0.00029  -0.00005   0.00024   2.07438
    A4        2.19792  -0.00023   0.00021  -0.00100  -0.00079   2.19713
    A5        1.96091   0.00000  -0.00044  -0.00031  -0.00075   1.96016
    A6        2.12436   0.00024   0.00023   0.00132   0.00154   2.12590
    A7        1.89381  -0.00053   0.00087  -0.00334  -0.00247   1.89133
    A8        1.93075   0.00051   0.00015   0.00341   0.00355   1.93431
    A9        1.93075   0.00051   0.00015   0.00341   0.00355   1.93431
   A10        1.90257  -0.00028  -0.00039  -0.00193  -0.00233   1.90024
   A11        1.90257  -0.00028  -0.00039  -0.00193  -0.00233   1.90024
   A12        1.90298   0.00005  -0.00039   0.00022  -0.00018   1.90280
    D1       -3.14159   0.00000   0.00000   0.00000   0.00000   3.14159
    D2        0.00000   0.00000   0.00000   0.00000   0.00000   0.00000
    D3        0.00000   0.00000   0.00000   0.00000   0.00000   0.00000
    D4        3.14159   0.00000   0.00000   0.00000   0.00000  -3.14159
    D5        0.00000   0.00000   0.00000   0.00000   0.00000   0.00000
         Item               Value     Threshold  Converged?
 Maximum Force            0.001071     0.000450     NO 
 RMS     Force            0.000377     0.000300     NO 
 Maximum Displacement     0.005282     0.001800     NO 
 RMS     Displacement     0.001973     0.001200     NO 
 Predicted change in Energy=-6.608924D-06
 GradGradGradGradGradGradGradGradGradGradGradGradGradGradGradGradGradGrad

                          Input orientation:                          
 ---------------------------------------------------------------------
 Center     Atomic      Atomic             Coordinates (Angstroms)
 Number     Number       Type             X           Y           Z
 ---------------------------------------------------------------------
      1          7           0        0.041471    0.000000   -1.337128
      2          6           0       -0.005547    0.000000    0.008511
      3          8           0        0.935040    0.000000    0.740404
      4          1           0       -0.824110    0.000000   -1.823470
      5          1           0       -1.030671    0.000000    0.387870
      6          6           0        1.272474    0.000000   -2.100867
      7          1           0        2.101354    0.000000   -1.409823
      8          1           0        1.337774   -0.883343   -2.727293
      9          1           0        1.337774    0.883343   -2.727293
 ---------------------------------------------------------------------
                    Distance matrix (angstroms):
                    1          2          3          4          5
     1  N    0.000000
     2  C    1.346460   0.000000
     3  O    2.261549   1.191793   0.000000
     4  H    0.992854   2.006540   3.109350   0.000000
     5  H    2.031036   1.093066   1.997073   2.220967   0.000000
     6  C    1.448677   2.466336   2.861238   2.114855   3.390913
     7  H    2.061165   2.539823   2.446174   2.954563   3.611272
     8  H    2.096009   3.173237   3.601030   2.504183   4.011741
     9  H    2.096009   3.173236   3.601030   2.504183   4.011741
                    6          7          8          9
     6  C    0.000000
     7  H    1.079159   0.000000
     8  H    1.084882   1.760419   0.000000
     9  H    1.084882   1.760419   1.766686   0.000000
 Symmetry turned off by external request.
 Stoichiometry    C2H5NO
 Framework group  C1[X(C2H5NO)]
 Deg. of freedom    21
 Full point group                 C1      NOp   1
 Rotational constants (GHZ):     20.6432486      6.1347312      4.8727227
 Standard basis: 6-311++G(d,p) (5D, 7F)
   123 basis functions,   189 primitive gaussians,   127 cartesian basis functions
    16 alpha electrons       16 beta electrons
       nuclear repulsion energy       122.4384726256 Hartrees.
 NAtoms=    9 NActive=    9 NUniq=    9 SFac= 1.00D+00 NAtFMM=   60 NAOKFM=F Big=F
 Integral buffers will be    262144 words long.
 Raffenetti 1 integral format.
 Two-electron integral symmetry is turned off.
 One-electron integrals computed using PRISM.
 NBasis=   123 RedAO= T EigKep=  4.40D-04  NBF=   123
 NBsUse=   123 1.00D-06 EigRej= -1.00D+00 NBFU=   123
 Initial guess from the checkpoint file:  "Formamide_rot_recoor.chk"
 B after Tr=     0.000846    0.000000    0.000281
         Rot=    1.000000    0.000000   -0.000261    0.000000 Ang=  -0.03 deg.
 Keep R1 ints in memory in canonical form, NReq=30190431.
 Requested convergence on RMS density matrix=1.00D-08 within 128 cycles.
 Requested convergence on MAX density matrix=1.00D-06.
 Requested convergence on             energy=1.00D-06.
 No special actions if energy rises.
 SCF Done:  E(RHF) =  -208.024770544     A.U. after    9 cycles
            NFock=  9  Conv=0.87D-08     -V/T= 2.0003
 Calling FoFJK, ICntrl=      2127 FMM=F ISym2X=0 I1Cent= 0 IOpClX= 0 NMat=1 NMatS=1 NMatT=0.
 -------------------------------------------------------------------
 Center     Atomic                   Forces (Hartrees/Bohr)
 Number     Number              X              Y              Z
 -------------------------------------------------------------------
      1        7          -0.000297892    0.000000033   -0.000339279
      2        6           0.000110650   -0.000000162    0.000335784
      3        8          -0.000188963    0.000000061   -0.000131545
      4        1           0.000074091    0.000000006    0.000054917
      5        1           0.000153586    0.000000055   -0.000042556
      6        6           0.000218332    0.000000007    0.000162323
      7        1           0.000039409   -0.000000001   -0.000059919
      8        1          -0.000054609    0.000015605    0.000010139
      9        1          -0.000054604   -0.000015605    0.000010135
 -------------------------------------------------------------------
 Cartesian Forces:  Max     0.000339279 RMS     0.000136297

 GradGradGradGradGradGradGradGradGradGradGradGradGradGradGradGradGradGrad
 Berny optimization.
 Using GEDIIS/GDIIS optimizer.
 FormGI is forming the generalized inverse of G from B-inverse, IUseBI=4.
 Internal  Forces:  Max     0.000229917 RMS     0.000089764
 Search for a local minimum.
 Step number   4 out of a maximum of   35 on scan point     1 out of    13
 All quantities printed in internal units (Hartrees-Bohrs-Radians)
 Mixed Optimization -- En-DIIS/RFO-DIIS
 Swapping is turned off.
 Update second derivatives using D2CorX and points    1    2    3    4
 DE= -5.81D-06 DEPred=-6.61D-06 R= 8.80D-01
 TightC=F SS=  1.41D+00  RLast= 8.16D-03 DXNew= 7.2634D-01 2.4484D-02
 Trust test= 8.80D-01 RLast= 8.16D-03 DXMaxT set to 4.32D-01
 ITU=  1  1  1  0
     Eigenvalues ---    0.02208   0.02208   0.02208   0.13782   0.15998
     Eigenvalues ---    0.16000   0.16000   0.16000   0.16112   0.19763
     Eigenvalues ---    0.21784   0.23264   0.30354   0.33751   0.34813
     Eigenvalues ---    0.35197   0.35868   0.47808   0.50782   1.00654
     Eigenvalues --- 1000.000001000.000001000.000001000.000001000.00000
 En-DIIS/RFO-DIIS IScMMF=        0 using points:     4    3
 RFO step:  Lambda=-3.25711505D-07.
 DidBck=F Rises=F RFO-DIIS coefs:    0.89220    0.10780
 Iteration  1 RMS(Cart)=  0.00033990 RMS(Int)=  0.00000016
 Iteration  2 RMS(Cart)=  0.00000014 RMS(Int)=  0.00000014
 Iteration  1 RMS(Cart)=  0.00000001 RMS(Int)=  0.00000000
 Variable       Old X    -DE/DX   Delta X   Delta X   Delta X     New X
                                 (Linear)    (Quad)   (Total)
    R1        2.54444   0.00016  -0.00022   0.00054   0.00032   2.54476
    R2        1.87622  -0.00009  -0.00007  -0.00012  -0.00018   1.87604
    R3        2.73760   0.00006   0.00032  -0.00017   0.00015   2.73775
    R4        2.25216  -0.00023   0.00000  -0.00020  -0.00020   2.25196
    R5        2.06560  -0.00016  -0.00016  -0.00025  -0.00042   2.06518
    R6        2.03931  -0.00001  -0.00008   0.00004  -0.00004   2.03927
    R7        2.05013  -0.00002  -0.00015   0.00012  -0.00003   2.05010
    R8        2.05013  -0.00002  -0.00015   0.00012  -0.00003   2.05010
    A1        2.04778   0.00006   0.00007   0.00023   0.00030   2.04808
    A2        2.16102  -0.00014  -0.00004  -0.00057  -0.00062   2.16041
    A3        2.07438   0.00008  -0.00003   0.00034   0.00032   2.07470
    A4        2.19713   0.00001   0.00009  -0.00010  -0.00001   2.19711
    A5        1.96016   0.00001   0.00008   0.00002   0.00010   1.96026
    A6        2.12590  -0.00002  -0.00017   0.00008  -0.00009   2.12581
    A7        1.89133   0.00018   0.00027   0.00052   0.00078   1.89212
    A8        1.93431  -0.00010  -0.00038  -0.00010  -0.00048   1.93383
    A9        1.93431  -0.00010  -0.00038  -0.00010  -0.00048   1.93383
   A10        1.90024   0.00003   0.00025  -0.00009   0.00016   1.90040
   A11        1.90024   0.00003   0.00025  -0.00009   0.00016   1.90040
   A12        1.90280  -0.00003   0.00002  -0.00014  -0.00012   1.90268
    D1        3.14159   0.00000   0.00000   0.00000   0.00000  -3.14159
    D2        0.00000   0.00000   0.00000   0.00000   0.00000   0.00000
    D3        0.00000   0.00000   0.00000   0.00000   0.00000   0.00000
    D4       -3.14159   0.00000   0.00000   0.00000   0.00000   3.14159
    D5        0.00000   0.00000   0.00000   0.00000   0.00000   0.00000
         Item               Value     Threshold  Converged?
 Maximum Force            0.000230     0.000450     YES
 RMS     Force            0.000092     0.000300     YES
 Maximum Displacement     0.000705     0.001800     YES
 RMS     Displacement     0.000340     0.001200     YES
 Predicted change in Energy=-2.860584D-07
 Optimization completed.
    -- Stationary point found.
                           ----------------------------
                           !   Optimized Parameters   !
                           ! (Angstroms and Degrees)  !
 --------------------------                            --------------------------
 ! Name  Definition              Value          Derivative Info.                !
 --------------------------------------------------------------------------------
 ! R1    R(1,2)                  1.3465         -DE/DX =    0.0002              !
 ! R2    R(1,4)                  0.9929         -DE/DX =   -0.0001              !
 ! R3    R(1,6)                  1.4487         -DE/DX =    0.0001              !
 ! R4    R(2,3)                  1.1918         -DE/DX =   -0.0002              !
 ! R5    R(2,5)                  1.0931         -DE/DX =   -0.0002              !
 ! R6    R(6,7)                  1.0792         -DE/DX =    0.0                 !
 ! R7    R(6,8)                  1.0849         -DE/DX =    0.0                 !
 ! R8    R(6,9)                  1.0849         -DE/DX =    0.0                 !
 ! A1    A(2,1,4)              117.3291         -DE/DX =    0.0001              !
 ! A2    A(2,1,6)              123.8175         -DE/DX =   -0.0001              !
 ! A3    A(4,1,6)              118.8535         -DE/DX =    0.0001              !
 ! A4    A(1,2,3)              125.8862         -DE/DX =    0.0                 !
 ! A5    A(1,2,5)              112.3087         -DE/DX =    0.0                 !
 ! A6    A(3,2,5)              121.8051         -DE/DX =    0.0                 !
 ! A7    A(1,6,7)              108.3655         -DE/DX =    0.0002              !
 ! A8    A(1,6,8)              110.8277         -DE/DX =   -0.0001              !
 ! A9    A(1,6,9)              110.8277         -DE/DX =   -0.0001              !
 ! A10   A(7,6,8)              108.8758         -DE/DX =    0.0                 !
 ! A11   A(7,6,9)              108.8758         -DE/DX =    0.0                 !
 ! A12   A(8,6,9)              109.0225         -DE/DX =    0.0                 !
 ! D1    D(4,1,2,3)           -180.0            -DE/DX =    0.0                 !
 ! D2    D(4,1,2,5)              0.0            -DE/DX =    0.0                 !
 ! D3    D(6,1,2,3)              0.0            -DE/DX =    0.0                 !
 ! D4    D(6,1,2,5)            180.0            -DE/DX =    0.0                 !
 ! D5    D(2,1,6,7)              0.0            -DE/DX =    0.0                 !
 --------------------------------------------------------------------------------
 Iteration  1 RMS(Cart)=  0.04639593 RMS(Int)=  0.00108383
 Iteration  2 RMS(Cart)=  0.00117588 RMS(Int)=  0.00000048
 Iteration  3 RMS(Cart)=  0.00000063 RMS(Int)=  0.00000000
 Iteration  1 RMS(Cart)=  0.00000000 RMS(Int)=  0.00000000
 GradGradGradGradGradGradGradGradGradGradGradGradGradGradGradGradGradGrad

                          Input orientation:                          
 ---------------------------------------------------------------------
 Center     Atomic      Atomic             Coordinates (Angstroms)
 Number     Number       Type             X           Y           Z
 ---------------------------------------------------------------------
      1          7           0        0.041393   -0.014761   -1.337183
      2          6           0       -0.005759    0.014516    0.008302
      3          8           0        0.934422    0.052921    0.739533
      4          1           0       -0.823674   -0.045881   -1.823246
      5          1           0       -1.030400   -0.000773    0.388023
      6          6           0        1.272679   -0.003319   -2.100529
      7          1           0        2.101389   -0.057750   -1.411460
      8          1           0        1.317709   -0.854367   -2.771818
      9          1           0        1.357801    0.909414   -2.680712
 ---------------------------------------------------------------------
                    Distance matrix (angstroms):
                    1          2          3          4          5
     1  N    0.000000
     2  C    1.346629   0.000000
     3  O    2.261599   1.191685   0.000000
     4  H    0.992757   2.006788   3.109421   0.000000
     5  H    2.031077   1.092845   1.996738   2.221370   0.000000
     6  C    1.448756   2.466149   2.860688   2.115040   3.390733
     7  H    2.061783   2.541853   2.449660   2.953929   3.612407
     8  H    2.095733   3.199311   3.646871   2.477692   4.028254
     9  H    2.095733   3.144984   3.551183   2.531139   3.993629
                    6          7          8          9
     6  C    0.000000
     7  H    1.079138   0.000000
     8  H    1.084868   1.760490   0.000000
     9  H    1.084868   1.760490   1.766587   0.000000
 Symmetry turned off by external request.
 Stoichiometry    C2H5NO
 Framework group  C1[X(C2H5NO)]
 Deg. of freedom    21
 Full point group                 C1      NOp   1
 Rotational constants (GHZ):     20.6370810      6.1362768      4.8733263
 Standard basis: 6-311++G(d,p) (5D, 7F)
   123 basis functions,   189 primitive gaussians,   127 cartesian basis functions
    16 alpha electrons       16 beta electrons
       nuclear repulsion energy       122.4396229520 Hartrees.
 NAtoms=    9 NActive=    9 NUniq=    9 SFac= 1.00D+00 NAtFMM=   60 NAOKFM=F Big=F
 Integral buffers will be    262144 words long.
 Raffenetti 1 integral format.
 Two-electron integral symmetry is turned off.
 One-electron integrals computed using PRISM.
 NBasis=   123 RedAO= T EigKep=  4.41D-04  NBF=   123
 NBsUse=   123 1.00D-06 EigRej= -1.00D+00 NBFU=   123
 Initial guess from the checkpoint file:  "Formamide_rot_recoor.chk"
 B after Tr=    -0.000446    0.029313   -0.000494
         Rot=    0.999945    0.008170    0.000035   -0.006514 Ang=   1.20 deg.
 ExpMin= 3.60D-02 ExpMax= 8.59D+03 ExpMxC= 1.30D+03 IAcc=3 IRadAn=         5 AccDes= 0.00D+00
 Harris functional with IExCor=  205 and IRadAn=       5 diagonalized for initial guess.
 HarFok:  IExCor=  205 AccDes= 0.00D+00 IRadAn=         5 IDoV= 1 UseB2=F ITyADJ=14
 ICtDFT=  3500011 ScaDFX=  1.000000  1.000000  1.000000  1.000000
 FoFCou: FMM=F IPFlag=           0 FMFlag=      100000 FMFlg1=           0
         NFxFlg=           0 DoJE=T BraDBF=F KetDBF=T FulRan=T
         wScrn=  0.000000 ICntrl=     500 IOpCl=  0 I1Cent=   200000004 NGrid=           0
         NMat0=    1 NMatS0=      1 NMatT0=    0 NMatD0=    1 NMtDS0=    0 NMtDT0=    0
 Symmetry not used in FoFCou.
 Keep R1 ints in memory in canonical form, NReq=30190431.
 Requested convergence on RMS density matrix=1.00D-08 within 128 cycles.
 Requested convergence on MAX density matrix=1.00D-06.
 Requested convergence on             energy=1.00D-06.
 No special actions if energy rises.
 SCF Done:  E(RHF) =  -208.024770703     A.U. after   12 cycles
            NFock= 12  Conv=0.37D-08     -V/T= 2.0003
 Calling FoFJK, ICntrl=      2127 FMM=F ISym2X=0 I1Cent= 0 IOpClX= 0 NMat=1 NMatS=1 NMatT=0.
 -------------------------------------------------------------------
 Center     Atomic                   Forces (Hartrees/Bohr)
 Number     Number              X              Y              Z
 -------------------------------------------------------------------
      1        7          -0.000128959   -0.000953825   -0.000080682
      2        6           0.000029587    0.000145644    0.000050906
      3        8          -0.000010872    0.000017735   -0.000078811
      4        1           0.000003281    0.000181944    0.000014687
      5        1           0.000000090   -0.000054754   -0.000006972
      6        6           0.000080132    0.000496093    0.000087564
      7        1           0.000047389    0.000075873   -0.000020438
      8        1          -0.000462274    0.000059535    0.000278480
      9        1           0.000441626    0.000031755   -0.000244733
 -------------------------------------------------------------------
 Cartesian Forces:  Max     0.000953825 RMS     0.000259627

 GradGradGradGradGradGradGradGradGradGradGradGradGradGradGradGradGradGrad
 Berny optimization.
 FormGI is forming the generalized inverse of G from B-inverse, IUseBI=4.
 Internal  Forces:  Max     0.000965063 RMS     0.000280041
 Search for a local minimum.
 Step number   1 out of a maximum of   35 on scan point     2 out of    13
 All quantities printed in internal units (Hartrees-Bohrs-Radians)
 Mixed Optimization -- RFO/linear search
 Second derivative matrix not updated -- first step.
 ITU=  0
     Eigenvalues ---    0.02208   0.02208   0.02208   0.13782   0.15998
     Eigenvalues ---    0.16000   0.16000   0.16000   0.16112   0.19763
     Eigenvalues ---    0.21784   0.23264   0.30354   0.33751   0.34813
     Eigenvalues ---    0.35197   0.35868   0.47808   0.50782   1.00654
     Eigenvalues --- 1000.000001000.000001000.000001000.000001000.00000
 RFO step:  Lambda=-1.41817495D-05 EMin= 2.20767554D-02
 Linear search not attempted -- first point.
 Iteration  1 RMS(Cart)=  0.00404875 RMS(Int)=  0.00001407
 Iteration  2 RMS(Cart)=  0.00001564 RMS(Int)=  0.00000541
 Iteration  3 RMS(Cart)=  0.00000000 RMS(Int)=  0.00000541
 Iteration  1 RMS(Cart)=  0.00000000 RMS(Int)=  0.00000000
 Variable       Old X    -DE/DX   Delta X   Delta X   Delta X     New X
                                 (Linear)    (Quad)   (Total)
    R1        2.54476  -0.00003   0.00000  -0.00006  -0.00006   2.54470
    R2        1.87604  -0.00002   0.00000  -0.00004  -0.00004   1.87600
    R3        2.73775   0.00004   0.00000   0.00013   0.00013   2.73788
    R4        2.25196  -0.00006   0.00000  -0.00005  -0.00005   2.25191
    R5        2.06518   0.00000   0.00000   0.00001   0.00001   2.06519
    R6        2.03927   0.00002   0.00000   0.00004   0.00004   2.03931
    R7        2.05010  -0.00024   0.00000  -0.00067  -0.00067   2.04943
    R8        2.05010   0.00019   0.00000   0.00056   0.00056   2.05067
    A1        2.04808   0.00005   0.00000   0.00021   0.00020   2.04827
    A2        2.16041  -0.00011   0.00000  -0.00051  -0.00052   2.15989
    A3        2.07470   0.00007   0.00000   0.00029   0.00028   2.07498
    A4        2.19711  -0.00008   0.00000  -0.00038  -0.00038   2.19673
    A5        1.96026   0.00003   0.00000   0.00016   0.00016   1.96042
    A6        2.12581   0.00005   0.00000   0.00022   0.00022   2.12604
    A7        1.89212   0.00009   0.00000   0.00041   0.00041   1.89253
    A8        1.93383  -0.00097   0.00000  -0.00598  -0.00598   1.92785
    A9        1.93383   0.00090   0.00000   0.00569   0.00569   1.93952
   A10        1.90040   0.00008   0.00000   0.00051   0.00051   1.90091
   A11        1.90040  -0.00009   0.00000  -0.00058  -0.00058   1.89982
   A12        1.90268  -0.00001   0.00000  -0.00005  -0.00005   1.90263
    D1       -3.14159   0.00013   0.00000   0.00607   0.00607  -3.13552
    D2        0.00000   0.00017   0.00000   0.00762   0.00762   0.00761
    D3        0.00000  -0.00010   0.00000  -0.00444  -0.00444  -0.00444
    D4        3.14159  -0.00006   0.00000  -0.00290  -0.00290   3.13870
    D5        0.08727   0.00000   0.00000   0.00000   0.00000   0.08727
         Item               Value     Threshold  Converged?
 Maximum Force            0.000965     0.000450     NO 
 RMS     Force            0.000286     0.000300     YES
 Maximum Displacement     0.009536     0.001800     NO 
 RMS     Displacement     0.004049     0.001200     NO 
 Predicted change in Energy=-7.090310D-06
 GradGradGradGradGradGradGradGradGradGradGradGradGradGradGradGradGradGrad

                          Input orientation:                          
 ---------------------------------------------------------------------
 Center     Atomic      Atomic             Coordinates (Angstroms)
 Number     Number       Type             X           Y           Z
 ---------------------------------------------------------------------
      1          7           0        0.041184   -0.016687   -1.337266
      2          6           0       -0.005840    0.013101    0.008179
      3          8           0        0.934696    0.050510    0.738963
      4          1           0       -0.823941   -0.041480   -1.823545
      5          1           0       -1.030385   -0.002266    0.388169
      6          6           0        1.272760   -0.001752   -2.100212
      7          1           0        2.101686   -0.053248   -1.411149
      8          1           0        1.316107   -0.856143   -2.766772
      9          1           0        1.359292    0.907965   -2.685456
 ---------------------------------------------------------------------
                    Distance matrix (angstroms):
                    1          2          3          4          5
     1  N    0.000000
     2  C    1.346595   0.000000
     3  O    2.261328   1.191660   0.000000
     4  H    0.992736   2.006858   3.109295   0.000000
     5  H    2.031156   1.092850   1.996844   2.221674   0.000000
     6  C    1.448824   2.465837   2.859709   2.115249   3.390652
     7  H    2.062151   2.541764   2.448594   2.954574   3.612481
     8  H    2.091316   3.194289   3.641108   2.476522   4.023529
     9  H    2.100002   3.149609   3.555581   2.531965   3.998281
                    6          7          8          9
     6  C    0.000000
     7  H    1.079157   0.000000
     8  H    1.084511   1.760536   0.000000
     9  H    1.085165   1.760380   1.766510   0.000000
 Symmetry turned off by external request.
 Stoichiometry    C2H5NO
 Framework group  C1[X(C2H5NO)]
 Deg. of freedom    21
 Full point group                 C1      NOp   1
 Rotational constants (GHZ):     20.6267888      6.1395278      4.8747857
 Standard basis: 6-311++G(d,p) (5D, 7F)
   123 basis functions,   189 primitive gaussians,   127 cartesian basis functions
    16 alpha electrons       16 beta electrons
       nuclear repulsion energy       122.4462595834 Hartrees.
 NAtoms=    9 NActive=    9 NUniq=    9 SFac= 1.00D+00 NAtFMM=   60 NAOKFM=F Big=F
 Integral buffers will be    262144 words long.
 Raffenetti 1 integral format.
 Two-electron integral symmetry is turned off.
 One-electron integrals computed using PRISM.
 NBasis=   123 RedAO= T EigKep=  4.41D-04  NBF=   123
 NBsUse=   123 1.00D-06 EigRej= -1.00D+00 NBFU=   123
 Initial guess from the checkpoint file:  "Formamide_rot_recoor.chk"
 B after Tr=     0.000112   -0.002952   -0.000172
         Rot=    1.000000   -0.000348   -0.000023   -0.000149 Ang=  -0.04 deg.
 Keep R1 ints in memory in canonical form, NReq=30190431.
 Requested convergence on RMS density matrix=1.00D-08 within 128 cycles.
 Requested convergence on MAX density matrix=1.00D-06.
 Requested convergence on             energy=1.00D-06.
 No special actions if energy rises.
 SCF Done:  E(RHF) =  -208.024775975     A.U. after    9 cycles
            NFock=  9  Conv=0.56D-08     -V/T= 2.0003
 Calling FoFJK, ICntrl=      2127 FMM=F ISym2X=0 I1Cent= 0 IOpClX= 0 NMat=1 NMatS=1 NMatT=0.
 -------------------------------------------------------------------
 Center     Atomic                   Forces (Hartrees/Bohr)
 Number     Number              X              Y              Z
 -------------------------------------------------------------------
      1        7           0.000010849   -0.000001180   -0.000007560
      2        6           0.000019397    0.000073340    0.000019958
      3        8          -0.000014321    0.000055392    0.000030454
      4        1           0.000004421    0.000104356   -0.000017020
      5        1           0.000009409   -0.000032007    0.000004576
      6        6          -0.000011821   -0.000281427   -0.000022983
      7        1          -0.000022078    0.000020542    0.000000778
      8        1           0.000135589    0.000028795   -0.000136750
      9        1          -0.000131446    0.000032189    0.000128547
 -------------------------------------------------------------------
 Cartesian Forces:  Max     0.000281427 RMS     0.000080828

 GradGradGradGradGradGradGradGradGradGradGradGradGradGradGradGradGradGrad
 Berny optimization.
 Using GEDIIS/GDIIS optimizer.
 FormGI is forming the generalized inverse of G from B-inverse, IUseBI=4.
 Internal  Forces:  Max     0.000422104 RMS     0.000131157
 Search for a local minimum.
 Step number   2 out of a maximum of   35 on scan point     2 out of    13
 All quantities printed in internal units (Hartrees-Bohrs-Radians)
 Mixed Optimization -- En-DIIS/RFO-DIIS
 Update second derivatives using D2CorX and points    1    2
 DE= -5.27D-06 DEPred=-7.09D-06 R= 7.44D-01
 TightC=F SS=  1.41D+00  RLast= 1.39D-02 DXNew= 7.2634D-01 4.1713D-02
 Trust test= 7.44D-01 RLast= 1.39D-02 DXMaxT set to 4.32D-01
 ITU=  1  0
 Use linear search instead of GDIIS.
     Eigenvalues ---    0.01836   0.02208   0.02223   0.13781   0.15590
     Eigenvalues ---    0.15998   0.16000   0.16112   0.19745   0.21596
     Eigenvalues ---    0.23250   0.24579   0.30370   0.33752   0.35168
     Eigenvalues ---    0.35210   0.35904   0.47808   0.50833   1.00657
     Eigenvalues --- 1000.000001000.000001000.000001000.000001000.00000
 RFO step:  Lambda=-1.36752291D-06 EMin= 1.83567918D-02
 Quartic linear search produced a step of -0.20412.
 Iteration  1 RMS(Cart)=  0.00129629 RMS(Int)=  0.00000199
 Iteration  2 RMS(Cart)=  0.00000230 RMS(Int)=  0.00000018
 Iteration  3 RMS(Cart)=  0.00000000 RMS(Int)=  0.00000018
 Iteration  1 RMS(Cart)=  0.00000000 RMS(Int)=  0.00000000
 Variable       Old X    -DE/DX   Delta X   Delta X   Delta X     New X
                                 (Linear)    (Quad)   (Total)
    R1        2.54470   0.00006   0.00001   0.00007   0.00008   2.54478
    R2        1.87600   0.00000   0.00001  -0.00001   0.00000   1.87600
    R3        2.73788  -0.00001  -0.00003   0.00001  -0.00001   2.73787
    R4        2.25191   0.00001   0.00001  -0.00001   0.00000   2.25191
    R5        2.06519  -0.00001   0.00000  -0.00001  -0.00002   2.06517
    R6        2.03931  -0.00002  -0.00001  -0.00002  -0.00003   2.03928
    R7        2.04943   0.00007   0.00014  -0.00005   0.00009   2.04952
    R8        2.05067  -0.00005  -0.00011   0.00005  -0.00007   2.05060
    A1        2.04827   0.00001  -0.00004   0.00008   0.00004   2.04831
    A2        2.15989   0.00002   0.00011  -0.00010   0.00000   2.15989
    A3        2.07498  -0.00002  -0.00006  -0.00003  -0.00009   2.07489
    A4        2.19673   0.00005   0.00008   0.00005   0.00013   2.19687
    A5        1.96042  -0.00002  -0.00003  -0.00001  -0.00004   1.96038
    A6        2.12604  -0.00003  -0.00005  -0.00005  -0.00009   2.12594
    A7        1.89253  -0.00003  -0.00008   0.00003  -0.00005   1.89247
    A8        1.92785   0.00042   0.00122   0.00029   0.00151   1.92936
    A9        1.93952  -0.00041  -0.00116  -0.00032  -0.00149   1.93804
   A10        1.90091   0.00013  -0.00010   0.00078   0.00067   1.90158
   A11        1.89982  -0.00012   0.00012  -0.00076  -0.00064   1.89918
   A12        1.90263   0.00000   0.00001  -0.00001   0.00000   1.90264
    D1       -3.13552   0.00010  -0.00124   0.00531   0.00407  -3.13145
    D2        0.00761   0.00008  -0.00155   0.00508   0.00353   0.01114
    D3       -0.00444   0.00000   0.00091  -0.00120  -0.00030  -0.00474
    D4        3.13870  -0.00002   0.00059  -0.00144  -0.00085   3.13785
    D5        0.08727   0.00016   0.00000   0.00000   0.00000   0.08727
         Item               Value     Threshold  Converged?
 Maximum Force            0.000422     0.000450     YES
 RMS     Force            0.000130     0.000300     YES
 Maximum Displacement     0.003030     0.001800     NO 
 RMS     Displacement     0.001296     0.001200     NO 
 Predicted change in Energy=-1.054676D-06
 GradGradGradGradGradGradGradGradGradGradGradGradGradGradGradGradGradGrad

                          Input orientation:                          
 ---------------------------------------------------------------------
 Center     Atomic      Atomic             Coordinates (Angstroms)
 Number     Number       Type             X           Y           Z
 ---------------------------------------------------------------------
      1          7           0        0.041209   -0.017938   -1.337258
      2          6           0       -0.005788    0.012896    0.008207
      3          8           0        0.934659    0.051265    0.739058
      4          1           0       -0.823954   -0.039877   -1.823609
      5          1           0       -1.030336   -0.002036    0.388183
      6          6           0        1.272738   -0.002748   -2.100262
      7          1           0        2.101678   -0.053110   -1.411156
      8          1           0        1.317357   -0.856262   -2.767935
      9          1           0        1.357996    0.907810   -2.684318
 ---------------------------------------------------------------------
                    Distance matrix (angstroms):
                    1          2          3          4          5
     1  N    0.000000
     2  C    1.346638   0.000000
     3  O    2.261444   1.191661   0.000000
     4  H    0.992737   2.006920   3.109387   0.000000
     5  H    2.031160   1.092842   1.996787   2.221722   0.000000
     6  C    1.448817   2.465870   2.859887   2.115192   3.390651
     7  H    2.062093   2.541724   2.448723   2.954593   3.612442
     8  H    2.092409   3.195796   3.642672   2.478598   4.025226
     9  H    2.098930   3.148090   3.554207   2.529790   3.996525
                    6          7          8          9
     6  C    0.000000
     7  H    1.079141   0.000000
     8  H    1.084557   1.760983   0.000000
     9  H    1.085130   1.759935   1.766520   0.000000
 Symmetry turned off by external request.
 Stoichiometry    C2H5NO
 Framework group  C1[X(C2H5NO)]
 Deg. of freedom    21
 Full point group                 C1      NOp   1
 Rotational constants (GHZ):     20.6282307      6.1389113      4.8744732
 Standard basis: 6-311++G(d,p) (5D, 7F)
   123 basis functions,   189 primitive gaussians,   127 cartesian basis functions
    16 alpha electrons       16 beta electrons
       nuclear repulsion energy       122.4444257923 Hartrees.
 NAtoms=    9 NActive=    9 NUniq=    9 SFac= 1.00D+00 NAtFMM=   60 NAOKFM=F Big=F
 Integral buffers will be    262144 words long.
 Raffenetti 1 integral format.
 Two-electron integral symmetry is turned off.
 One-electron integrals computed using PRISM.
 NBasis=   123 RedAO= T EigKep=  4.41D-04  NBF=   123
 NBsUse=   123 1.00D-06 EigRej= -1.00D+00 NBFU=   123
 Initial guess from the checkpoint file:  "Formamide_rot_recoor.chk"
 B after Tr=     0.000011   -0.000218    0.000045
         Rot=    1.000000    0.000215   -0.000001   -0.000161 Ang=   0.03 deg.
 Keep R1 ints in memory in canonical form, NReq=30190431.
 Requested convergence on RMS density matrix=1.00D-08 within 128 cycles.
 Requested convergence on MAX density matrix=1.00D-06.
 Requested convergence on             energy=1.00D-06.
 No special actions if energy rises.
 SCF Done:  E(RHF) =  -208.024777279     A.U. after    9 cycles
            NFock=  9  Conv=0.45D-08     -V/T= 2.0003
 Calling FoFJK, ICntrl=      2127 FMM=F ISym2X=0 I1Cent= 0 IOpClX= 0 NMat=1 NMatS=1 NMatT=0.
 -------------------------------------------------------------------
 Center     Atomic                   Forces (Hartrees/Bohr)
 Number     Number              X              Y              Z
 -------------------------------------------------------------------
      1        7           0.000022671   -0.000195710    0.000013239
      2        6          -0.000004658    0.000189283    0.000002995
      3        8          -0.000004555   -0.000025891   -0.000002707
      4        1          -0.000001996    0.000046994   -0.000002315
      5        1           0.000000936   -0.000042853    0.000000880
      6        6          -0.000007643    0.000072330   -0.000007974
      7        1          -0.000010048   -0.000068391    0.000000033
      8        1           0.000029374    0.000009569   -0.000013910
      9        1          -0.000024079    0.000014670    0.000009760
 -------------------------------------------------------------------
 Cartesian Forces:  Max     0.000195710 RMS     0.000058301

 GradGradGradGradGradGradGradGradGradGradGradGradGradGradGradGradGradGrad
 Berny optimization.
 Using GEDIIS/GDIIS optimizer.
 FormGI is forming the generalized inverse of G from B-inverse, IUseBI=4.
 Internal  Forces:  Max     0.000141298 RMS     0.000038900
 Search for a local minimum.
 Step number   3 out of a maximum of   35 on scan point     2 out of    13
 All quantities printed in internal units (Hartrees-Bohrs-Radians)
 Mixed Optimization -- En-DIIS/RFO-DIIS
 Swapping is turned off.
 Update second derivatives using D2CorX and points    1    2    3
 DE= -1.30D-06 DEPred=-1.05D-06 R= 1.24D+00
 TightC=F SS=  1.41D+00  RLast= 5.94D-03 DXNew= 7.2634D-01 1.7812D-02
 Trust test= 1.24D+00 RLast= 5.94D-03 DXMaxT set to 4.32D-01
 ITU=  1  1  0
     Eigenvalues ---    0.01101   0.02209   0.02632   0.13783   0.15902
     Eigenvalues ---    0.16000   0.16004   0.16112   0.19753   0.21511
     Eigenvalues ---    0.22839   0.23660   0.30358   0.33752   0.35196
     Eigenvalues ---    0.35267   0.35878   0.47808   0.50855   1.00664
     Eigenvalues --- 1000.000001000.000001000.000001000.000001000.00000
 En-DIIS/RFO-DIIS IScMMF=        0 using points:     3    2
 RFO step:  Lambda=-9.99342994D-08.
 DidBck=F Rises=F RFO-DIIS coefs:    1.30877   -0.30877
 Iteration  1 RMS(Cart)=  0.00153878 RMS(Int)=  0.00000377
 Iteration  2 RMS(Cart)=  0.00000334 RMS(Int)=  0.00000228
 Iteration  3 RMS(Cart)=  0.00000000 RMS(Int)=  0.00000228
 Iteration  1 RMS(Cart)=  0.00000000 RMS(Int)=  0.00000000
 Variable       Old X    -DE/DX   Delta X   Delta X   Delta X     New X
                                 (Linear)    (Quad)   (Total)
    R1        2.54478   0.00000   0.00003   0.00001   0.00003   2.54481
    R2        1.87600   0.00000   0.00000   0.00000   0.00001   1.87601
    R3        2.73787   0.00000   0.00000   0.00000  -0.00001   2.73786
    R4        2.25191  -0.00001   0.00000  -0.00001  -0.00001   2.25190
    R5        2.06517   0.00000   0.00000   0.00000  -0.00001   2.06516
    R6        2.03928   0.00000  -0.00001  -0.00001  -0.00002   2.03926
    R7        2.04952   0.00000   0.00003  -0.00005  -0.00002   2.04950
    R8        2.05060   0.00001  -0.00002   0.00006   0.00004   2.05064
    A1        2.04831   0.00000   0.00001  -0.00004  -0.00003   2.04828
    A2        2.15989   0.00001   0.00000   0.00000   0.00000   2.15989
    A3        2.07489  -0.00001  -0.00003  -0.00002  -0.00006   2.07484
    A4        2.19687   0.00000   0.00004  -0.00002   0.00002   2.19689
    A5        1.96038   0.00000  -0.00001   0.00000  -0.00002   1.96036
    A6        2.12594   0.00000  -0.00003   0.00002  -0.00001   2.12593
    A7        1.89247  -0.00002  -0.00002  -0.00007  -0.00009   1.89239
    A8        1.92936   0.00007   0.00047   0.00016   0.00063   1.92999
    A9        1.93804  -0.00006  -0.00046  -0.00010  -0.00056   1.93747
   A10        1.90158   0.00001   0.00021   0.00011   0.00031   1.90189
   A11        1.89918   0.00000  -0.00020  -0.00010  -0.00030   1.89888
   A12        1.90264   0.00000   0.00000   0.00000   0.00000   1.90264
    D1       -3.13145   0.00001   0.00126   0.00100   0.00226  -3.12919
    D2        0.01114   0.00007   0.00109   0.00521   0.00630   0.01744
    D3       -0.00474  -0.00005  -0.00009  -0.00379  -0.00388  -0.00862
    D4        3.13785   0.00001  -0.00026   0.00042   0.00016   3.13801
    D5        0.08727   0.00014   0.00000   0.00000   0.00000   0.08727
         Item               Value     Threshold  Converged?
 Maximum Force            0.000073     0.000450     YES
 RMS     Force            0.000027     0.000300     YES
 Maximum Displacement     0.004777     0.001800     NO 
 RMS     Displacement     0.001539     0.001200     NO 
 Predicted change in Energy=-3.808539D-07
 GradGradGradGradGradGradGradGradGradGradGradGradGradGradGradGradGradGrad

                          Input orientation:                          
 ---------------------------------------------------------------------
 Center     Atomic      Atomic             Coordinates (Angstroms)
 Number     Number       Type             X           Y           Z
 ---------------------------------------------------------------------
      1          7           0        0.041228   -0.019069   -1.337243
      2          6           0       -0.005783    0.013488    0.008198
      3          8           0        0.934691    0.050286    0.739085
      4          1           0       -0.823992   -0.037349   -1.823652
      5          1           0       -1.030302   -0.002410    0.388202
      6          6           0        1.272720   -0.003314   -2.100289
      7          1           0        2.101668   -0.051703   -1.411068
      8          1           0        1.318705   -0.857056   -2.767559
      9          1           0        1.356624    0.907127   -2.684765
 ---------------------------------------------------------------------
                    Distance matrix (angstroms):
                    1          2          3          4          5
     1  N    0.000000
     2  C    1.346656   0.000000
     3  O    2.261465   1.191655   0.000000
     4  H    0.992740   2.006919   3.109384   0.000000
     5  H    2.031161   1.092838   1.996771   2.221730   0.000000
     6  C    1.448813   2.465880   2.859926   2.115156   3.390648
     7  H    2.062021   2.541636   2.448549   2.954644   3.612345
     8  H    2.092838   3.196395   3.642428   2.480732   4.025802
     9  H    2.098552   3.147506   3.554568   2.527575   3.995973
                    6          7          8          9
     6  C    0.000000
     7  H    1.079130   0.000000
     8  H    1.084546   1.761162   0.000000
     9  H    1.085152   1.759759   1.766532   0.000000
 Symmetry turned off by external request.
 Stoichiometry    C2H5NO
 Framework group  C1[X(C2H5NO)]
 Deg. of freedom    21
 Full point group                 C1      NOp   1
 Rotational constants (GHZ):     20.6287518      6.1387738      4.8744261
 Standard basis: 6-311++G(d,p) (5D, 7F)
   123 basis functions,   189 primitive gaussians,   127 cartesian basis functions
    16 alpha electrons       16 beta electrons
       nuclear repulsion energy       122.4442660258 Hartrees.
 NAtoms=    9 NActive=    9 NUniq=    9 SFac= 1.00D+00 NAtFMM=   60 NAOKFM=F Big=F
 Integral buffers will be    262144 words long.
 Raffenetti 1 integral format.
 Two-electron integral symmetry is turned off.
 One-electron integrals computed using PRISM.
 NBasis=   123 RedAO= T EigKep=  4.41D-04  NBF=   123
 NBsUse=   123 1.00D-06 EigRej= -1.00D+00 NBFU=   123
 Initial guess from the checkpoint file:  "Formamide_rot_recoor.chk"
 B after Tr=     0.000021   -0.000667    0.000011
         Rot=    1.000000   -0.000013   -0.000003    0.000078 Ang=  -0.01 deg.
 Keep R1 ints in memory in canonical form, NReq=30190431.
 Requested convergence on RMS density matrix=1.00D-08 within 128 cycles.
 Requested convergence on MAX density matrix=1.00D-06.
 Requested convergence on             energy=1.00D-06.
 No special actions if energy rises.
 SCF Done:  E(RHF) =  -208.024777038     A.U. after    9 cycles
            NFock=  9  Conv=0.32D-08     -V/T= 2.0003
 Calling FoFJK, ICntrl=      2127 FMM=F ISym2X=0 I1Cent= 0 IOpClX= 0 NMat=1 NMatS=1 NMatT=0.
 -------------------------------------------------------------------
 Center     Atomic                   Forces (Hartrees/Bohr)
 Number     Number              X              Y              Z
 -------------------------------------------------------------------
      1        7           0.000012520   -0.000071603    0.000003432
[...]
 Mixed Optimization -- En-DIIS/RFO-DIIS
 Swapping is turned off.
 Update second derivatives using D2CorX and points    1    2    3
 DE= -2.36D-07 DEPred=-1.87D-07 R= 1.26D+00
 Trust test= 1.26D+00 RLast= 8.01D-03 DXMaxT set to 2.16D-01
 ITU=  0  1  0
     Eigenvalues ---    0.00322   0.02257   0.10573   0.14112   0.15117
     Eigenvalues ---    0.16011   0.16230   0.16239   0.19533   0.21161
     Eigenvalues ---    0.24398   0.27429   0.31131   0.33847   0.35083
     Eigenvalues ---    0.35677   0.36656   0.48025   0.51353   1.01959
     Eigenvalues --- 1000.000001000.000001000.000001000.000001000.00000
 En-DIIS/RFO-DIIS IScMMF=        0 using points:     3    2
 RFO step:  Lambda=-1.37919556D-08.
 DidBck=F Rises=F RFO-DIIS coefs:    1.33962   -0.33962
 Iteration  1 RMS(Cart)=  0.00072675 RMS(Int)=  0.00000146
 Iteration  2 RMS(Cart)=  0.00000067 RMS(Int)=  0.00000134
 Iteration  1 RMS(Cart)=  0.00000000 RMS(Int)=  0.00000000
 Variable       Old X    -DE/DX   Delta X   Delta X   Delta X     New X
                                 (Linear)    (Quad)   (Total)
    R1        2.54084   0.00003   0.00006  -0.00001   0.00006   2.54090
    R2        1.87404   0.00000   0.00003  -0.00003   0.00001   1.87405
    R3        2.73910   0.00001  -0.00002   0.00007   0.00004   2.73914
    R4        2.25247  -0.00003  -0.00001  -0.00002  -0.00003   2.25244
    R5        2.06516   0.00000   0.00000   0.00000   0.00000   2.06515
    R6        2.04724  -0.00002   0.00003  -0.00005  -0.00002   2.04722
    R7        2.04516   0.00000   0.00000  -0.00001  -0.00001   2.04515
    R8        2.04736   0.00001  -0.00002   0.00002   0.00000   2.04736
    A1        2.06399  -0.00001  -0.00005  -0.00003  -0.00008   2.06390
    A2        2.13194   0.00003   0.00008   0.00008   0.00016   2.13210
    A3        2.08724  -0.00002  -0.00001  -0.00005  -0.00007   2.08718
    A4        2.18009   0.00001   0.00007  -0.00002   0.00005   2.18015
    A5        1.97184  -0.00001  -0.00005  -0.00003  -0.00007   1.97177
    A6        2.13125   0.00000  -0.00003   0.00005   0.00002   2.13127
    A7        1.93495  -0.00003   0.00011  -0.00012  -0.00001   1.93494
    A8        1.89543   0.00003   0.00003   0.00009   0.00012   1.89555
    A9        1.93568   0.00000  -0.00015   0.00003  -0.00012   1.93555
   A10        1.90249   0.00002   0.00008   0.00006   0.00014   1.90263
   A11        1.89210  -0.00001  -0.00005  -0.00001  -0.00006   1.89203
   A12        1.90274   0.00000  -0.00002  -0.00005  -0.00007   1.90267
    D1       -3.13848   0.00000  -0.00156   0.00015  -0.00141  -3.13989
    D2        0.00342   0.00000  -0.00171   0.00017  -0.00154   0.00188
    D3       -0.00221   0.00001   0.00106   0.00013   0.00120  -0.00102
    D4        3.13969   0.00001   0.00091   0.00016   0.00107   3.14076
    D5        1.04720   0.00000   0.00000   0.00000   0.00000   1.04720
         Item               Value     Threshold  Converged?
 Maximum Force            0.000034     0.000450     YES
 RMS     Force            0.000017     0.000300     YES
 Maximum Displacement     0.001706     0.001800     YES
 RMS     Displacement     0.000727     0.001200     YES
 Predicted change in Energy=-2.386791D-08
 Optimization completed.
    -- Stationary point found.
                           ----------------------------
                           !   Optimized Parameters   !
                           ! (Angstroms and Degrees)  !
 --------------------------                            --------------------------
 ! Name  Definition              Value          Derivative Info.                !
 --------------------------------------------------------------------------------
 ! R1    R(1,2)                  1.3446         -DE/DX =    0.0                 !
 ! R2    R(1,4)                  0.9917         -DE/DX =    0.0                 !
 ! R3    R(1,6)                  1.4495         -DE/DX =    0.0                 !
 ! R4    R(2,3)                  1.192          -DE/DX =    0.0                 !
 ! R5    R(2,5)                  1.0928         -DE/DX =    0.0                 !
 ! R6    R(6,7)                  1.0834         -DE/DX =    0.0                 !
 ! R7    R(6,8)                  1.0823         -DE/DX =    0.0                 !
 ! R8    R(6,9)                  1.0834         -DE/DX =    0.0                 !
 ! A1    A(2,1,4)              118.2578         -DE/DX =    0.0                 !
 ! A2    A(2,1,6)              122.1512         -DE/DX =    0.0                 !
 ! A3    A(4,1,6)              119.5903         -DE/DX =    0.0                 !
 ! A4    A(1,2,3)              124.9102         -DE/DX =    0.0                 !
 ! A5    A(1,2,5)              112.9783         -DE/DX =    0.0                 !
 ! A6    A(3,2,5)              122.1116         -DE/DX =    0.0                 !
 ! A7    A(1,6,7)              110.8642         -DE/DX =    0.0                 !
 ! A8    A(1,6,8)              108.6004         -DE/DX =    0.0                 !
 ! A9    A(1,6,9)              110.906          -DE/DX =    0.0                 !
 ! A10   A(7,6,8)              109.0045         -DE/DX =    0.0                 !
 ! A11   A(7,6,9)              108.4092         -DE/DX =    0.0                 !
 ! A12   A(8,6,9)              109.019          -DE/DX =    0.0                 !
 ! D1    D(4,1,2,3)           -179.8217         -DE/DX =    0.0                 !
 ! D2    D(4,1,2,5)              0.196          -DE/DX =    0.0                 !
 ! D3    D(6,1,2,3)             -0.1268         -DE/DX =    0.0                 !
 ! D4    D(6,1,2,5)            179.8909         -DE/DX =    0.0                 !
 ! D5    D(2,1,6,7)             60.0            -DE/DX =    0.0                 !
 --------------------------------------------------------------------------------
 GradGradGradGradGradGradGradGradGradGradGradGradGradGradGradGradGradGrad

 Summary of Optimized Potential Surface Scan
                           1         2         3         4         5
     Eigenvalues --  -208.02477-208.02478-208.02480-208.02483-208.02487
           R1           1.34646   1.34666   1.34657   1.34649   1.34641
           R2           0.99285   0.99274   0.99271   0.99268   0.99263
           R3           1.44868   1.44881   1.44878   1.44883   1.44886
           R4           1.19179   1.19165   1.19165   1.19166   1.19167
           R5           1.09307   1.09284   1.09287   1.09287   1.09287
           R6           1.07916   1.07913   1.07923   1.07933   1.07949
           R7           1.08488   1.08453   1.08424   1.08392   1.08362
           R8           1.08488   1.08517   1.08538   1.08561   1.08577
           A1         117.32908 117.35596 117.37572 117.41405 117.46874
           A2         123.81746 123.75240 123.67961 123.57019 123.42048
           A3         118.85346 118.87870 118.89995 118.92102 118.95337
           A4         125.88621 125.87165 125.82661 125.77063 125.69514
           A5         112.30871 112.32054 112.34572 112.38489 112.43688
           A6         121.80509 121.80774 121.82726 121.84365 121.86666
           A7         108.36548 108.42431 108.48831 108.57667 108.69962
           A8         110.82767 110.57121 110.31668 110.07738 109.83466
           A9         110.82767 111.01920 111.21953 111.39733 111.54777
           A10        108.87581 108.96691 109.01119 109.06002 109.09646
           A11        108.87581 108.80154 108.74442 108.66828 108.59861
           A12        109.02252 109.01347 109.01721 109.01834 109.02182
           D1        -180.00003-179.12335-178.44017-177.71159-177.03910
           D2           0.00003   0.97581   1.78977   2.61586   3.37384
           D3          -0.00003  -0.44927  -0.90425  -1.29560  -1.65515
           D4         180.00003 179.64989 179.32570 179.03184 178.75779
           D5           0.00000   5.00000  10.00000  15.00000  20.00000
                           6         7         8         9        10
     Eigenvalues --  -208.02492-208.02497-208.02502-208.02506-208.02509
           R1           1.34629   1.34614   1.34595   1.34573   1.34540
           R2           0.99256   0.99247   0.99236   0.99224   0.99208
           R3           1.44891   1.44897   1.44905   1.44915   1.44927
           R4           1.19167   1.19168   1.19170   1.19172   1.19179
           R5           1.09287   1.09288   1.09288   1.09288   1.09286
           R6           1.07970   1.07998   1.08032   1.08073   1.08126
           R7           1.08334   1.08308   1.08286   1.08267   1.08250
           R8           1.08586   1.08587   1.08578   1.08559   1.08524
           A1         117.53721 117.61940 117.71460 117.82093 117.95570
           A2         123.23930 123.03631 122.82291 122.61361 122.41906
           A3         118.99858 119.05631 119.12694 119.21032 119.32393
           A4         125.59868 125.48799 125.36828 125.24498 125.12311
           A5         112.50198 112.57721 112.65899 112.74344 112.82890
           A6         121.89757 121.93266 121.97042 122.00933 122.04621
           A7         108.85434 109.03920 109.25299 109.49544 109.78702
           A8         109.60021 109.37906 109.17541 108.99401 108.83836
           A9         111.66326 111.74028 111.77266 111.75412 111.66463
           A10        109.11628 109.11943 109.10691 109.08047 109.05264
           A11        108.53898 108.49011 108.45395 108.43124 108.41136
           A12        109.02677 109.03249 109.03916 109.04607 109.04785
           D1        -176.45467-175.98649-175.67245-175.56146-175.92286
           D2           4.02532   4.53896   4.87383   4.97774   4.55597
           D3          -1.96687  -2.21699  -2.39009  -2.46484  -2.27530
           D4         178.51312 178.30846 178.15619 178.07436 178.20354
           D5          25.00000  30.00000  35.00000  40.00000  45.00000
                          11        12        13
     Eigenvalues --  -208.02511-208.02512-208.02513
           R1           1.34506   1.34480   1.34456
           R2           0.99192   0.99176   0.99170
           R3           1.44938   1.44936   1.44947
           R4           1.19184   1.19194   1.19196
           R5           1.09284   1.09284   1.09283
           R6           1.08186   1.08255   1.08335
           R7           1.08237   1.08227   1.08225
           R8           1.08479   1.08416   1.08341
           A1         118.08241 118.20947 118.25781
           A2         122.27551 122.17210 122.15122
           A3         119.43383 119.53565 119.59027
           A4         125.01704 124.96186 124.91016
           A5         112.90192 112.94415 112.97828
           A6         122.07990 122.09357 122.11156
           A7         110.10658 110.46416 110.86424
           A8         108.71976 108.61813 108.60036
           A9         111.50398 111.25458 110.90602
           A10        109.02347 109.00218 109.00445
           A11        108.40414 108.41799 108.40921
           A12        109.04443 109.04615 109.01901
           D1        -176.62572-177.90882-179.82168
           D2           3.75828   2.32332   0.19602
           D3          -1.90326  -1.23490  -0.12682
           D4         178.48074 178.99724 179.89088
           D5          50.00000  55.00000  60.00000
                          Input orientation:                          
 ---------------------------------------------------------------------
 Center     Atomic      Atomic             Coordinates (Angstroms)
 Number     Number       Type             X           Y           Z
 ---------------------------------------------------------------------
      1          7           0        0.053401   -0.180058   -1.320134
      2          6           0       -0.033395    0.166208   -0.023832
      3          8           0        0.862484    0.610068    0.625129
      4          1           0       -0.756970   -0.538117   -1.765738
      5          1           0       -1.028320   -0.000259    0.396521
      6          6           0        1.282511   -0.039485   -2.075444
      7          1           0        2.076657   -0.628966   -1.633292
      8          1           0        1.108027   -0.384942   -3.086131
      9          1           0        1.601165    0.995552   -2.106170
 ---------------------------------------------------------------------
                    Distance matrix (angstroms):
                    1          2          3          4          5
     1  N    0.000000
     2  C    1.344557   0.000000
     3  O    2.250103   1.191957   0.000000
     4  H    0.991701   2.013423   3.107604   0.000000
     5  H    2.036996   1.092833   1.999975   2.244613   0.000000
     6  C    1.449471   2.446024   2.809170   2.122271   3.384094
     7  H    2.095984   2.770376   2.847787   2.838175   3.762486
     8  H    2.067113   3.314255   3.850168   2.290221   4.103758
     9  H    2.096542   2.774118   2.855564   2.833521   3.764213
                    6          7          8          9
     6  C    0.000000
     7  H    1.083353   0.000000
     8  H    1.082254   1.763103   0.000000
     9  H    1.083414   1.757488   1.763313   0.000000
 Symmetry turned off by external request.
 Stoichiometry    C2H5NO
 Framework group  C1[X(C2H5NO)]
 Deg. of freedom    21
 Full point group                 C1      NOp   1
 Rotational constants (GHZ):     20.1333525      6.3110248      4.9514261

 **********************************************************************

            Population analysis using the SCF density.

 **********************************************************************

 Alpha  occ. eigenvalues --  -20.52377 -15.59037 -11.34488 -11.26492  -1.40033
 Alpha  occ. eigenvalues --   -1.24266  -0.97241  -0.81297  -0.75299  -0.64952
 Alpha  occ. eigenvalues --   -0.63142  -0.59996  -0.56217  -0.53967  -0.43212
 Alpha  occ. eigenvalues --   -0.39902
 Alpha virt. eigenvalues --    0.03300   0.04956   0.06430   0.07948   0.08558
 Alpha virt. eigenvalues --    0.11536   0.11626   0.13398   0.14636   0.16806
 Alpha virt. eigenvalues --    0.17602   0.18774   0.20073   0.20414   0.22252
 Alpha virt. eigenvalues --    0.26852   0.27486   0.28496   0.30402   0.33050
 Alpha virt. eigenvalues --    0.33972   0.35613   0.36577   0.38953   0.39266
 Alpha virt. eigenvalues --    0.41854   0.44723   0.48011   0.55386   0.57195
 Alpha virt. eigenvalues --    0.60241   0.64122   0.71276   0.73757   0.76376
 Alpha virt. eigenvalues --    0.81597   0.83048   0.84463   0.89365   0.90702
 Alpha virt. eigenvalues --    0.94681   1.04014   1.05428   1.06529   1.09576
 Alpha virt. eigenvalues --    1.21013   1.24983   1.32949   1.37742   1.38872
 Alpha virt. eigenvalues --    1.41528   1.45934   1.55155   1.59492   1.71293
 Alpha virt. eigenvalues --    1.74224   1.75455   1.80493   1.81026   1.86834
 Alpha virt. eigenvalues --    1.94307   1.95202   2.02854   2.03932   2.06003
 Alpha virt. eigenvalues --    2.08344   2.19604   2.28407   2.35188   2.36654
 Alpha virt. eigenvalues --    2.45331   2.54517   2.64943   2.75222   2.81018
 Alpha virt. eigenvalues --    2.81612   2.84204   2.86915   2.88884   2.92372
 Alpha virt. eigenvalues --    2.98186   3.07694   3.13479   3.17462   3.20245
 Alpha virt. eigenvalues --    3.30416   3.32305   3.35982   3.57536   3.79903
 Alpha virt. eigenvalues --    3.84926   3.96608   4.04788   4.11797   4.15628
 Alpha virt. eigenvalues --    4.26280   4.36630   4.40742   5.36126   5.45069
 Alpha virt. eigenvalues --    5.60867   5.77265   6.34699  25.10259  25.11544
 Alpha virt. eigenvalues --   37.03286  51.72636
          Condensed to atoms (all electrons):
               1          2          3          4          5          6
     1  N    7.241000   0.144249  -0.169946   0.377594  -0.193867   0.110320
     2  C    0.144249   4.754792   0.469161  -0.030124   0.443121  -0.050117
     3  O   -0.169946   0.469161   8.168804   0.005397  -0.026550   0.030647
     4  H    0.377594  -0.030124   0.005397   0.361136   0.001835  -0.029635
     5  H   -0.193867   0.443121  -0.026550   0.001835   0.665374   0.019552
     6  C    0.110320  -0.050117   0.030647  -0.029635   0.019552   4.936004
     7  H   -0.039077  -0.010036  -0.007399   0.002528  -0.001057   0.424809
     8  H   -0.068993   0.021241   0.003933  -0.004194  -0.000363   0.418532
     9  H   -0.039385  -0.010305  -0.007552   0.002485  -0.001135   0.425115
               7          8          9
     1  N   -0.039077  -0.068993  -0.039385
     2  C   -0.010036   0.021241  -0.010305
     3  O   -0.007399   0.003933  -0.007552
     4  H    0.002528  -0.004194   0.002485
     5  H   -0.001057  -0.000363  -0.001135
     6  C    0.424809   0.418532   0.425115
     7  H    0.541043  -0.036532  -0.037698
     8  H   -0.036532   0.590216  -0.036741
     9  H   -0.037698  -0.036741   0.542010
 Mulliken charges:
               1
     1  N   -0.361894
     2  C    0.268019
     3  O   -0.466494
     4  H    0.312978
     5  H    0.093091
     6  C   -0.285226
     7  H    0.163420
     8  H    0.112901
     9  H    0.163206
 Sum of Mulliken charges =   0.00000
 Mulliken charges with hydrogens summed into heavy atoms:
               1
     1  N   -0.048916
     2  C    0.361110
     3  O   -0.466494
     6  C    0.154301
 Electronic spatial extent (au):  <R**2>=            380.8059
 Charge=              0.0000 electrons
 Dipole moment (field-independent basis, Debye):
    X=             -2.1864    Y=             -1.5662    Z=             -3.2970  Tot=              4.2548
 Quadrupole moment (field-independent basis, Debye-Ang):
   XX=            -23.9477   YY=            -25.6378   ZZ=            -21.3809
   XY=             -0.8264   XZ=             -2.5519   YZ=             -0.3090
 Traceless Quadrupole moment (field-independent basis, Debye-Ang):
   XX=             -0.2922   YY=             -1.9823   ZZ=              2.2745
   XY=             -0.8264   XZ=             -2.5519   YZ=             -0.3090
 Octapole moment (field-independent basis, Debye-Ang**2):
  XXX=            -42.5784  YYY=             -8.0819  ZZZ=             47.0076  XYY=            -14.5695
  XXY=             -5.0899  XXZ=             14.4951  XZZ=            -13.7101  YZZ=             -6.3776
  YYZ=             18.9675  XYZ=             -2.5458
 Hexadecapole moment (field-independent basis, Debye-Ang**3):
 XXXX=           -138.6683 YYYY=            -47.1602 ZZZZ=           -280.6269 XXXY=            -10.3061
 XXXZ=             49.3587 YYYX=             -8.0753 YYYZ=            -15.9750 ZZZX=             48.8854
 ZZZY=             -6.5088 XXYY=            -30.7911 XXZZ=            -68.4686 YYZZ=            -59.4481
 XXYZ=             -4.4096 YYXZ=             16.8366 ZZXY=             -0.5605
 N-N= 1.227130368083D+02 E-N=-7.340088152098D+02  KE= 2.079708457637D+02
 1|1|UNPC-OXYGEN|Scan|RHF|6-311++G(d,p)|C2H5N1O1|RUBIDIUM|05-Jul-2014|0
 ||# opt=modredundant rhf/6-311++G(d,p) nosymm||RHF/6-311++G(d,p)(MeHNC
 HO) Me rot 7123=0 to 180||0,1|N,0.0534009046,-0.1800579957,-1.32013413
 69|C,-0.0333950635,0.1662078574,-0.0238318229|O,0.8624836291,0.6100680
 803,0.6251293851|H,-0.7569700114,-0.5381174045,-1.7657375923|H,-1.0283
 202944,-0.000259319,0.3965212098|C,1.2825111126,-0.0394850659,-2.07544
 39659|H,2.0766567342,-0.6289662289,-1.6332923563|H,1.10802668,-0.38494
 17692,-3.0861310336|H,1.6011654588,0.9955518856,-2.1061702271||Version
 =IA32W-G09RevD.01|HF=-208.0247705,-208.0247775,-208.0247973,-208.02482
 89,-208.0248702,-208.0249183,-208.0249691,-208.0250183,-208.0250611,-2
 08.0250939,-208.0251144,-208.0251238,-208.0251261|RMSD=8.678e-009,8.40
 6e-009,6.986e-009,7.160e-009,7.284e-009,7.086e-009,6.566e-009,5.756e-0
 09,4.681e-009,9.020e-009,6.796e-009,7.612e-009,9.600e-009|PG=C01 [X(C2
 H5N1O1)]||@


 MYSTERY IS THE WISDOM OF BLOCKHEADS... HORACE WALPOLE 
 Job cpu time:       0 days  0 hours  7 minutes 28.0 seconds.
 File lengths (MBytes):  RWF=      9 Int=      0 D2E=      0 Chk=      4 Scr=      1
 Normal termination of Gaussian 09 at Sat Jul 05 18:17:17 2014.
